/*--------------------------------*- C++ -*----------------------------------*\
| =========                 |                                                 |
| \\      /  F ield         | OpenFOAM: The Open Source CFD Toolbox           |
|  \\    /   O peration     | Version:  2206                                  |
|   \\  /    A nd           | Website:  www.openfoam.com                      |
|    \\/     M anipulation  |                                                 |
\*---------------------------------------------------------------------------*/
FoamFile
{
    version     2.0;
    format      ascii;
    arch        "LSB;label=32;scalar=64";
    class       surfaceScalarField;
    location    "4";
    object      phi;
}
// * * * * * * * * * * * * * * * * * * * * * * * * * * * * * * * * * * * * * //

dimensions      [0 3 -1 0 0 0 0];

oriented        oriented;

internalField   nonuniform List<scalar> 
29650
(
6.0867648e-05
0.00020579915
3.2718169e-05
2.8149475e-05
2.4599021e-05
8.1191452e-06
2.0417849e-05
4.1811705e-06
1.8552178e-05
1.8656696e-06
1.73737e-05
1.1784767e-06
1.6781661e-05
5.9203674e-07
1.6412315e-05
3.6934305e-07
1.6220821e-05
1.9148984e-07
1.6106686e-05
1.1413036e-07
1.6048258e-05
5.8423987e-08
1.6015474e-05
3.2781004e-08
1.5999542e-05
1.593037e-08
1.5991376e-05
8.1646182e-09
1.5987889e-05
3.4866401e-09
1.598644e-05
1.448632e-09
1.598609e-05
3.4994523e-10
1.5986138e-05
-4.762227e-11
1.5986349e-05
-2.1090079e-10
1.5986569e-05
-2.1977209e-10
1.5986762e-05
-1.9221677e-10
1.5986908e-05
-1.4611011e-10
1.5987014e-05
-1.0618659e-10
1.5987087e-05
-7.2868509e-11
1.5987136e-05
-4.8817251e-11
1.5987167e-05
-3.1620798e-11
1.5987187e-05
-2.0117876e-11
1.59872e-05
-1.2491157e-11
1.5987208e-05
-7.6332416e-12
1.5987212e-05
-4.5689763e-12
1.5987215e-05
-2.689022e-12
1.5987216e-05
-1.5492269e-12
1.5987217e-05
-8.7433686e-13
1.5987218e-05
-4.8155017e-13
1.5987218e-05
-2.5812644e-13
1.5987218e-05
-1.3358806e-13
1.5987218e-05
-6.5339406e-14
1.5987218e-05
-2.9555422e-14
1.5987218e-05
-1.1680564e-14
1.5987218e-05
-3.8516886e-15
1.5987218e-05
-6.9694893e-16
1.5987218e-05
5.7185309e-16
1.5987218e-05
1.2873402e-15
1.5987218e-05
1.2983069e-15
1.5987218e-05
5.477527e-16
1.5987218e-05
-5.2979713e-16
1.5987218e-05
-1.2117876e-15
1.5987218e-05
-1.3849658e-15
1.5987218e-05
-1.1979809e-15
1.5987218e-05
-8.6916855e-16
1.5987218e-05
-7.5375517e-16
1.5987218e-05
-5.3356047e-16
1.5987218e-05
-6.1640871e-16
1.5987218e-05
-3.6669399e-16
1.5987218e-05
-1.9191425e-16
1.5987218e-05
2.1025773e-16
1.5987218e-05
4.8003228e-16
1.5987218e-05
8.8385906e-16
1.5987218e-05
8.5683032e-16
1.5987218e-05
8.6948013e-16
1.5987218e-05
7.5525491e-16
1.5987218e-05
7.1363554e-16
1.5987218e-05
7.0996451e-16
1.5987218e-05
6.049205e-16
1.5987218e-05
6.1175208e-16
1.5987218e-05
4.6075192e-16
1.5987218e-05
5.0318853e-16
1.5987218e-05
3.5011424e-16
1.5987218e-05
3.8196175e-16
1.5987218e-05
3.5351026e-16
1.5987218e-05
4.850502e-16
1.5987218e-05
4.9502065e-16
1.5987218e-05
5.4490588e-16
1.5987218e-05
5.0578387e-16
1.5987218e-05
5.0918268e-16
1.5987218e-05
4.9070095e-16
1.5987218e-05
4.940225e-16
1.5987218e-05
5.2009606e-16
1.5987218e-05
5.1345189e-16
1.5987218e-05
5.4488735e-16
1.5987218e-05
5.1434348e-16
1.5987218e-05
5.469626e-16
1.5987218e-05
5.1013976e-16
1.5987218e-05
5.5559818e-16
1.5987218e-05
5.2236035e-16
1.5987218e-05
5.7223449e-16
1.5987218e-05
5.4572805e-16
1.5987218e-05
5.9982633e-16
1.5987218e-05
5.8723397e-16
1.5987218e-05
6.4069227e-16
1.5987218e-05
6.4045577e-16
1.5987218e-05
6.7555425e-16
1.5987218e-05
6.8326631e-16
1.5987218e-05
7.0700101e-16
1.5987218e-05
7.4004109e-16
1.5987218e-05
7.3397446e-16
1.5987218e-05
7.4610037e-16
1.5987218e-05
6.8575146e-16
1.5987218e-05
7.1367606e-16
1.5987218e-05
6.2639011e-16
1.5987218e-05
6.4362958e-16
1.5987218e-05
5.9217339e-16
1.5987218e-05
6.8367252e-16
1.5987218e-05
6.2280589e-16
1.5987218e-05
6.282493e-16
1.5987218e-05
5.9810333e-16
1.5987218e-05
5.801693e-16
1.5987218e-05
4.7181679e-16
1.5987218e-05
3.7473478e-16
1.5987218e-05
2.456072e-16
1.5987218e-05
3.365281e-16
1.5987218e-05
2.8315606e-16
1.5987218e-05
3.5790742e-16
1.5987218e-05
3.054683e-16
1.5987218e-05
4.7007473e-16
1.5987218e-05
5.1926674e-16
1.5987218e-05
6.2028508e-16
1.5987218e-05
5.6694524e-16
1.5987218e-05
5.9020864e-16
1.5987218e-05
5.3429416e-16
1.5987218e-05
5.7835092e-16
1.5987218e-05
5.655667e-16
1.5987218e-05
5.9171857e-16
1.5987218e-05
5.7011695e-16
1.5987218e-05
5.4995692e-16
1.5987218e-05
5.4455166e-16
1.5987218e-05
5.1973288e-16
1.5987218e-05
5.4802936e-16
1.5987218e-05
5.2514133e-16
1.5987218e-05
5.6334319e-16
1.5987218e-05
5.3207241e-16
1.5987218e-05
5.666308e-16
1.5987218e-05
5.3157295e-16
1.5987218e-05
5.6136069e-16
1.5987218e-05
5.2541457e-16
1.5987218e-05
5.4884798e-16
1.5987218e-05
5.124534e-16
1.5987218e-05
5.3246988e-16
1.5987218e-05
4.9346345e-16
1.5987218e-05
5.1185809e-16
1.5987218e-05
4.7184154e-16
1.5987218e-05
4.9670705e-16
1.5987218e-05
4.5384641e-16
1.5987218e-05
4.8223837e-16
1.5987218e-05
4.3359021e-16
1.5987218e-05
4.842731e-16
1.5987218e-05
4.5063e-16
1.5987218e-05
5.1859838e-16
1.5987218e-05
4.4984442e-16
1.5987218e-05
5.0080476e-16
1.5987218e-05
4.5875224e-16
1.5987218e-05
6.0955387e-16
1.5987218e-05
6.1624105e-16
1.5987218e-05
6.4809345e-16
1.5987218e-05
3.4003723e-16
1.5987218e-05
1.3111041e-16
1.5987218e-05
-2.2621815e-16
1.5987218e-05
-3.3292796e-16
1.5987218e-05
-5.2909185e-16
1.5987218e-05
-5.5373638e-16
1.5987218e-05
-6.8586701e-16
1.5987218e-05
-6.3925036e-16
1.5987218e-05
-6.5343033e-16
1.5987218e-05
-5.5972726e-16
1.5987218e-05
-6.3977974e-16
1.5987218e-05
-6.2328657e-16
1.5987218e-05
-7.6120081e-16
1.5987218e-05
-7.4464788e-16
1.5987218e-05
-7.0930899e-16
1.5987218e-05
-4.2093315e-16
1.5987218e-05
-2.0797776e-16
1.5987218e-05
7.7893914e-17
1.5987218e-05
1.7310182e-16
1.5987218e-05
3.3064966e-16
1.5987218e-05
3.8523259e-16
1.5987218e-05
5.2165001e-16
1.5987218e-05
5.3233139e-16
1.5987218e-05
6.0007411e-16
1.5987218e-05
5.5671569e-16
1.5987218e-05
5.9597081e-16
1.5987218e-05
5.4838969e-16
1.5987218e-05
5.8895174e-16
1.5987218e-05
5.5139433e-16
1.5987218e-05
6.1207034e-16
1.5987218e-05
5.949788e-16
1.5987218e-05
6.411914e-16
1.5987218e-05
5.9014762e-16
1.5987218e-05
6.2381197e-16
1.5987218e-05
6.4571283e-16
1.5987218e-05
7.7229779e-16
1.5987218e-05
8.3476349e-16
1.5987218e-05
8.0545298e-16
1.5987218e-05
5.8185847e-16
1.5987218e-05
3.2631816e-16
1.5987218e-05
8.9228454e-17
1.5987218e-05
-5.2426844e-17
1.5987218e-05
-1.2415946e-16
1.5987218e-05
-3.1266591e-16
1.5987218e-05
-4.377693e-16
1.5987218e-05
-5.4915064e-16
1.5987218e-05
-4.3167672e-16
1.5987218e-05
-3.1957798e-16
1.5987218e-05
-2.7066167e-17
1.5987218e-05
1.6170031e-16
1.5987218e-05
4.404509e-16
1.5987218e-05
5.6324175e-16
1.5987218e-05
6.4265259e-16
1.5987218e-05
4.8544424e-16
1.5987218e-05
2.3621254e-16
1.5987218e-05
-1.0952031e-16
1.5987218e-05
-3.9521698e-16
1.5987218e-05
-5.8441281e-16
1.5987218e-05
-5.9380731e-16
1.5987218e-05
-4.5763156e-16
1.5987218e-05
-2.3982274e-16
1.5987218e-05
-3.4319594e-17
1.5987218e-05
9.6734995e-17
1.5987218e-05
2.5531404e-16
1.5987218e-05
4.6675174e-16
1.5987218e-05
6.473257e-16
1.5987218e-05
6.7143353e-16
1.5987218e-05
5.278155e-16
1.5987218e-05
2.5994174e-16
1.5987218e-05
-3.7961478e-17
1.5987218e-05
-3.1979362e-16
1.5987218e-05
-5.2929036e-16
1.5987218e-05
-6.3891037e-16
1.5987218e-05
-5.8701678e-16
1.5987218e-05
-3.8683703e-16
1.5987218e-05
-1.1977587e-16
1.5987218e-05
1.6228357e-16
1.5987218e-05
4.147761e-16
1.5987218e-05
5.3756438e-16
1.5987218e-05
5.0987898e-16
1.5987218e-05
3.4312378e-16
1.5987218e-05
1.3605996e-16
1.5987218e-05
-1.8455309e-17
1.5987218e-05
-1.459662e-16
1.5987218e-05
-3.1841099e-16
1.5987218e-05
-5.2750589e-16
1.5987218e-05
-6.3403677e-16
1.5987218e-05
-5.8188053e-16
1.5987218e-05
-2.9816658e-16
1.5987218e-05
3.4509993e-17
1.5987218e-05
3.8612561e-16
1.5987218e-05
5.4021892e-16
1.5987218e-05
5.3574589e-16
1.5987218e-05
3.1828283e-16
1.5987218e-05
3.6811129e-17
1.5987218e-05
-2.1305757e-16
1.5987218e-05
-2.3472553e-16
1.5987218e-05
-1.6453544e-16
1.5987218e-05
6.4371005e-17
1.5987218e-05
2.381627e-16
1.5987218e-05
3.4642585e-16
1.5987218e-05
2.7572466e-16
1.5987218e-05
1.2954092e-16
1.5987218e-05
-1.2104716e-16
1.5987218e-05
-3.3960851e-16
1.5987218e-05
-4.4933798e-16
1.5987218e-05
-4.1146119e-16
1.5987218e-05
-2.6027535e-16
1.5987218e-05
1.3594114e-17
1.5987218e-05
2.1759395e-16
1.5987218e-05
2.8800689e-16
1.5987218e-05
2.3418526e-16
1.5987218e-05
7.0234283e-17
1.5987218e-05
-1.5732897e-16
1.5987218e-05
-3.8842742e-16
1.5987218e-05
-5.0947036e-16
1.5987218e-05
-4.9223438e-16
1.5987218e-05
-3.1072737e-16
1.5987218e-05
-4.0404609e-18
1.5987218e-05
2.4739166e-16
1.5987218e-05
3.0562395e-16
1.5987218e-05
2.2389133e-16
1.5987218e-05
-3.9938383e-17
1.5987218e-05
-2.6620999e-16
1.5987218e-05
-3.5705953e-16
1.5987218e-05
-2.1628569e-16
1.5987218e-05
4.1751902e-17
1.5987218e-05
2.9597213e-16
1.5987218e-05
2.8156729e-16
1.5987218e-05
1.0211152e-16
1.5987218e-05
-1.4429809e-16
1.5987218e-05
-2.1108245e-16
1.5987218e-05
-8.687658e-17
1.5987218e-05
1.2169474e-16
1.5987218e-05
2.6544646e-16
1.5987218e-05
3.4613622e-16
1.5987218e-05
3.6493426e-16
1.5987218e-05
4.3615635e-16
1.5987218e-05
5.2454898e-16
1.5987218e-05
5.8614703e-16
1.5987218e-05
5.7178609e-16
1.5987218e-05
5.9880736e-16
1.5987218e-05
7.4696065e-16
1.5987218e-05
8.4322043e-16
1.5987218e-05
5.1767415e-16
8.7800918e-17
0.00014027132
0.00033219463
9.2549243e-05
7.5871546e-05
7.0338072e-05
3.0330314e-05
5.9620314e-05
1.489893e-05
5.4019642e-05
7.4663444e-06
5.0795344e-05
4.402779e-06
4.901105e-05
2.3763327e-06
4.7964745e-05
1.4156477e-06
4.7384384e-05
7.7184778e-07
4.7052234e-05
4.4627686e-07
4.6872682e-05
2.3797067e-07
4.677453e-05
1.3092837e-07
4.6724187e-05
6.6270821e-08
4.6698685e-05
3.3664028e-08
4.6686924e-05
1.5245879e-08
4.6681892e-05
6.4799836e-09
4.6680252e-05
1.9906286e-09
4.6680058e-05
1.4635912e-10
4.6680445e-05
-5.9740936e-10
4.6680961e-05
-7.3614498e-10
4.6681443e-05
-6.7349097e-10
4.6681826e-05
-5.2933595e-10
4.668211e-05
-3.9016448e-10
4.6682309e-05
-2.7182729e-10
4.6682444e-05
-1.8354698e-10
4.6682532e-05
-1.2001572e-10
4.6682589e-05
-7.6810734e-11
4.6682624e-05
-4.8034522e-11
4.6682646e-05
-2.9508834e-11
4.6682659e-05
-1.77749e-11
4.6682667e-05
-1.0522701e-11
4.6682672e-05
-6.1057571e-12
4.6682674e-05
-3.4721693e-12
4.6682676e-05
-1.9290097e-12
4.6682676e-05
-1.0446213e-12
4.6682677e-05
-5.4728963e-13
4.6682677e-05
-2.7421148e-13
4.6682677e-05
-1.2816824e-13
4.6682677e-05
-5.4062536e-14
4.6682677e-05
-1.9177643e-14
4.6682677e-05
-4.3270988e-15
4.6682677e-05
2.1163785e-15
4.6682677e-05
4.8637945e-15
4.6682677e-05
5.0678652e-15
4.6682677e-05
2.7943338e-15
4.6682677e-05
-2.3026061e-17
4.6682677e-05
-1.8281181e-15
4.6682677e-05
-2.0420242e-15
4.6682677e-05
-1.4921414e-15
4.6682677e-05
-9.1365294e-16
4.6682677e-05
-7.1941683e-16
4.6682677e-05
-3.7913811e-16
4.6682677e-05
-7.5719972e-16
4.6682677e-05
-5.7403127e-16
4.6682677e-05
-4.1128246e-16
4.6682677e-05
1.6514504e-16
4.6682677e-05
7.5780979e-16
4.6682677e-05
1.81576e-15
4.6682677e-05
1.7210417e-15
4.6682677e-05
1.9933021e-15
4.6682677e-05
1.5251499e-15
4.6682677e-05
1.5772225e-15
4.6682677e-05
1.4790164e-15
4.6682677e-05
1.3879896e-15
4.6682677e-05
1.2634473e-15
4.6682677e-05
9.9619403e-16
4.6682677e-05
9.9546351e-16
4.6682677e-05
7.1795532e-16
4.6682677e-05
7.1023534e-16
4.6682677e-05
8.2481977e-16
4.6682677e-05
9.0839407e-16
4.6682677e-05
1.2353245e-15
4.6682677e-05
1.1325405e-15
4.6682677e-05
1.278187e-15
4.6682677e-05
1.0834606e-15
4.6682677e-05
1.2245596e-15
4.6682677e-05
1.0432883e-15
4.6682677e-05
1.277806e-15
4.6682677e-05
1.0923023e-15
4.6682677e-05
1.33237e-15
4.6682677e-05
1.0798163e-15
4.6682677e-05
1.308089e-15
4.6682677e-05
1.0292826e-15
4.6682677e-05
1.283654e-15
4.6682677e-05
1.0073634e-15
4.6682677e-05
1.2844816e-15
4.6682677e-05
1.0172579e-15
4.6682677e-05
1.3238093e-15
4.6682677e-05
1.0807914e-15
4.6682677e-05
1.4051577e-15
4.6682677e-05
1.1787086e-15
4.6682677e-05
1.4791851e-15
4.6682677e-05
1.2484539e-15
4.6682677e-05
1.5503406e-15
4.6682677e-05
1.3601763e-15
4.6682677e-05
1.6493253e-15
4.6682677e-05
1.3593836e-15
4.6682677e-05
1.5458233e-15
4.6682677e-05
1.2425676e-15
4.6682677e-05
1.4862665e-15
4.6682677e-05
1.2035333e-15
4.6682677e-05
1.5231621e-15
4.6682677e-05
1.3244133e-15
4.6682677e-05
1.4616537e-15
4.6682677e-05
9.5696467e-16
4.6682677e-05
1.2337151e-15
4.6682677e-05
8.4248485e-16
4.6682677e-05
9.7013433e-16
4.6682677e-05
5.0275985e-16
4.6682677e-05
4.4909523e-16
4.6682677e-05
5.1238192e-16
4.6682677e-05
6.4184065e-16
4.6682677e-05
6.1696722e-16
4.6682677e-05
9.2607388e-16
4.6682677e-05
7.4843606e-16
4.6682677e-05
1.4364685e-15
4.6682677e-05
1.2060982e-15
4.6682677e-05
1.4841977e-15
4.6682677e-05
1.1987118e-15
4.6682677e-05
1.3632714e-15
4.6682677e-05
1.2202307e-15
4.6682677e-05
1.4502026e-15
4.6682677e-05
1.3406392e-15
4.6682677e-05
1.4948258e-15
4.6682677e-05
1.2940184e-15
4.6682677e-05
1.411052e-15
4.6682677e-05
1.2171016e-15
4.6682677e-05
1.3798415e-15
4.6682677e-05
1.2248282e-15
4.6682677e-05
1.3916385e-15
4.6682677e-05
1.2420835e-15
4.6682677e-05
1.3831559e-15
4.6682677e-05
1.241066e-15
4.6682677e-05
1.3589801e-15
4.6682677e-05
1.2264973e-15
4.6682677e-05
1.3205244e-15
4.6682677e-05
1.1959413e-15
4.6682677e-05
1.2732237e-15
4.6682677e-05
1.1499832e-15
4.6682677e-05
1.2148336e-15
4.6682677e-05
1.0983213e-15
4.6682677e-05
1.168344e-15
4.6682677e-05
1.0553846e-15
4.6682677e-05
1.1213406e-15
4.6682677e-05
1.0055438e-15
4.6682677e-05
1.1173086e-15
4.6682677e-05
1.0592714e-15
4.6682677e-05
1.1933114e-15
4.6682677e-05
1.0479936e-15
4.6682677e-05
1.1192079e-15
4.6682677e-05
1.084954e-15
4.6682677e-05
1.4166537e-15
4.6682677e-05
1.4711626e-15
4.6682677e-05
1.4605451e-15
4.6682677e-05
6.4348994e-16
4.6682677e-05
6.1445791e-17
4.6682677e-05
-6.9495237e-16
4.6682677e-05
-8.6179507e-16
4.6682677e-05
-1.0910583e-15
4.6682677e-05
-1.1525027e-15
4.6682677e-05
-1.4047934e-15
4.6682677e-05
-1.3990591e-15
4.6682677e-05
-1.451732e-15
4.6682677e-05
-1.3013155e-15
4.6682677e-05
-1.4239326e-15
4.6682677e-05
-1.4757367e-15
4.6682677e-05
-1.749832e-15
4.6682677e-05
-1.7394762e-15
4.6682677e-05
-1.4899536e-15
4.6682677e-05
-8.287593e-16
4.6682677e-05
-1.8732323e-16
4.6682677e-05
3.4853595e-16
4.6682677e-05
4.8384502e-16
4.6682677e-05
6.8642139e-16
4.6682677e-05
7.9045957e-16
4.6682677e-05
1.0595684e-15
4.6682677e-05
1.1461345e-15
4.6682677e-05
1.2907068e-15
4.6682677e-05
1.2510263e-15
4.6682677e-05
1.3183133e-15
4.6682677e-05
1.2330915e-15
4.6682677e-05
1.293246e-15
4.6682677e-05
1.2154339e-15
4.6682677e-05
1.3308456e-15
4.6682677e-05
1.3036799e-15
4.6682677e-05
1.3765481e-15
4.6682677e-05
1.2540873e-15
4.6682677e-05
1.3003497e-15
4.6682677e-05
1.3966904e-15
4.6682677e-05
1.689104e-15
4.6682677e-05
1.8298914e-15
4.6682677e-05
1.6979626e-15
4.6682677e-05
1.0225523e-15
4.6682677e-05
3.7604952e-16
4.6682677e-05
-1.6873706e-16
4.6682677e-05
-3.7059533e-16
4.6682677e-05
-4.1069472e-16
4.6682677e-05
-7.5201264e-16
4.6682677e-05
-1.0262783e-15
4.6682677e-05
-1.2037638e-15
4.6682677e-05
-8.5905973e-16
4.6682677e-05
-4.9583417e-16
4.6682677e-05
1.5085204e-16
4.6682677e-05
5.6653527e-16
4.6682677e-05
1.0920613e-15
4.6682677e-05
1.3137449e-15
4.6682677e-05
1.4187585e-15
4.6682677e-05
9.718304e-16
4.6682677e-05
3.4437432e-16
4.6682677e-05
-4.6198369e-16
4.6682677e-05
-1.026268e-15
4.6682677e-05
-1.2608523e-15
4.6682677e-05
-1.1804482e-15
4.6682677e-05
-7.075967e-16
4.6682677e-05
-2.2142829e-16
4.6682677e-05
1.8250072e-16
4.6682677e-05
3.1294656e-16
4.6682677e-05
5.2301804e-16
4.6682677e-05
9.8513184e-16
4.6682677e-05
1.3496466e-15
4.6682677e-05
1.4090642e-15
4.6682677e-05
1.0199688e-15
4.6682677e-05
3.5111338e-16
4.6682677e-05
-2.994794e-16
4.6682677e-05
-8.7915861e-16
4.6682677e-05
-1.2153851e-15
4.6682677e-05
-1.3534397e-15
4.6682677e-05
-1.1548333e-15
4.6682677e-05
-5.8887183e-16
4.6682677e-05
-6.6138077e-18
4.6682677e-05
6.0396472e-16
4.6682677e-05
1.0279844e-15
4.6682677e-05
1.1319294e-15
4.6682677e-05
9.7598149e-16
4.6682677e-05
4.4877807e-16
4.6682677e-05
1.8743062e-17
4.6682677e-05
-2.1724366e-16
4.6682677e-05
-3.5973135e-16
4.6682677e-05
-6.7239173e-16
4.6682677e-05
-1.1447388e-15
4.6682677e-05
-1.3592288e-15
4.6682677e-05
-1.233564e-15
4.6682677e-05
-4.6113881e-16
4.6682677e-05
3.1106003e-16
4.6682677e-05
1.0494805e-15
4.6682677e-05
1.2667811e-15
4.6682677e-05
9.9379551e-16
4.6682677e-05
4.1101246e-16
4.6682677e-05
-2.8940225e-16
4.6682677e-05
-6.7791829e-16
4.6682677e-05
-4.5450754e-16
4.6682677e-05
-5.8314357e-17
4.6682677e-05
5.8303871e-16
4.6682677e-05
9.3682227e-16
4.6682677e-05
9.3922433e-16
4.6682677e-05
5.6465168e-16
4.6682677e-05
5.8659427e-17
4.6682677e-05
-5.932819e-16
4.6682677e-05
-9.8483205e-16
4.6682677e-05
-1.0228178e-15
4.6682677e-05
-7.6456769e-16
4.6682677e-05
-2.2247678e-16
4.6682677e-05
3.9657826e-16
4.6682677e-05
7.4541726e-16
4.6682677e-05
6.8516793e-16
4.6682677e-05
3.2881801e-16
4.6682677e-05
-1.2807197e-16
4.6682677e-05
-6.7593431e-16
4.6682677e-05
-1.0517651e-15
4.6682677e-05
-1.1325687e-15
4.6682677e-05
-9.2412681e-16
4.6682677e-05
-3.5624256e-16
4.6682677e-05
3.7778856e-16
4.6682677e-05
8.0100958e-16
4.6682677e-05
6.7087261e-16
4.6682677e-05
2.4853788e-16
4.6682677e-05
-4.9997843e-16
4.6682677e-05
-9.5100849e-16
4.6682677e-05
-8.9103389e-16
4.6682677e-05
-3.5532696e-16
4.6682677e-05
4.8801863e-16
4.6682677e-05
9.9427319e-16
4.6682677e-05
6.8331783e-16
4.6682677e-05
3.0453365e-17
4.6682677e-05
-7.0768845e-16
4.6682677e-05
-7.7478595e-16
4.6682677e-05
-1.829526e-16
4.6682677e-05
4.5830612e-16
4.6682677e-05
9.0388718e-16
4.6682677e-05
9.851101e-16
4.6682677e-05
8.8682999e-16
4.6682677e-05
9.4234003e-16
4.6682677e-05
1.1000189e-15
4.6682677e-05
1.2302591e-15
4.6682677e-05
1.1858369e-15
4.6682677e-05
1.2894281e-15
4.6682677e-05
1.7593771e-15
4.6682677e-05
2.005365e-15
4.6682677e-05
9.5783709e-16
-9.5314737e-17
0.00019469214
0.00040416928
0.00014360962
0.00012695407
0.00011230147
6.1638458e-05
9.6619294e-05
3.0581111e-05
8.7762221e-05
1.6323419e-05
8.2755406e-05
9.4095946e-06
7.9871701e-05
5.2600384e-06
7.8206034e-05
3.0813163e-06
7.7256668e-05
1.7212142e-06
7.6718195e-05
9.8475131e-07
7.6420463e-05
5.3570356e-07
7.6258218e-05
2.9317332e-07
7.6172993e-05
1.5149628e-07
7.61296e-05
7.7057285e-08
7.6108851e-05
3.5994711e-08
7.6099695e-05
1.5635605e-08
7.6096324e-05
5.3614917e-09
7.6095587e-05
8.8316463e-10
7.6095937e-05
-9.4663097e-10
7.6096611e-05
-1.4107501e-09
7.609729e-05
-1.352824e-09
7.6097854e-05
-1.0928178e-09
7.609828e-05
-8.1631564e-10
7.6098584e-05
-5.7534199e-10
7.6098791e-05
-3.9119108e-10
7.6098929e-05
-2.5756591e-10
7.6099018e-05
-1.6565217e-10
7.6099074e-05
-1.0413269e-10
7.6099108e-05
-6.4238494e-11
7.609913e-05
-3.8869792e-11
7.6099142e-05
-2.3104086e-11
7.609915e-05
-1.3470633e-11
7.6099154e-05
-7.7005004e-12
7.6099156e-05
-4.3051689e-12
7.6099157e-05
-2.3477162e-12
7.6099158e-05
-1.2413683e-12
7.6099158e-05
-6.2997319e-13
7.6099159e-05
-3.0151977e-13
7.6099159e-05
-1.3192632e-13
7.6099159e-05
-4.9384857e-14
7.6099159e-05
-1.1981312e-14
7.6099159e-05
3.8414616e-15
7.6099159e-05
9.7162607e-15
7.6099159e-05
1.010536e-14
7.6099159e-05
7.1900242e-15
7.6099159e-05
3.4667301e-15
7.6099159e-05
9.6254335e-16
7.6099159e-05
-8.3058528e-17
7.6099159e-05
-1.0073539e-16
7.6099159e-05
-2.5315666e-17
7.6099159e-05
-1.2171376e-16
7.6099159e-05
-1.268356e-16
7.6099159e-05
-6.0260167e-16
7.6099159e-05
-6.0456975e-16
7.6099159e-05
-4.8688957e-16
7.6099159e-05
3.6594696e-17
7.6099159e-05
6.4553341e-16
7.6099159e-05
1.605793e-15
7.6099159e-05
1.7084823e-15
7.6099159e-05
1.8174971e-15
7.6099159e-05
1.5460216e-15
7.6099159e-05
1.4335852e-15
7.6099159e-05
1.4535399e-15
7.6099159e-05
1.2167787e-15
7.6099159e-05
1.2324755e-15
7.6099159e-05
8.5153673e-16
7.6099159e-05
9.2700247e-16
7.6099159e-05
5.3053293e-16
7.6099159e-05
5.721482e-16
7.6099159e-05
5.4179663e-16
7.6099159e-05
7.8885985e-16
7.6099159e-05
9.2666234e-16
7.6099159e-05
9.8182816e-16
7.6099159e-05
9.7636898e-16
7.6099159e-05
9.0927074e-16
7.6099159e-05
9.2320961e-16
7.6099159e-05
8.5612722e-16
7.6099159e-05
9.7332525e-16
7.6099159e-05
8.9607044e-16
7.6099159e-05
1.0301451e-15
7.6099159e-05
8.8590973e-16
7.6099159e-05
1.0132319e-15
7.6099159e-05
8.4188263e-16
7.6099159e-05
9.9260145e-16
7.6099159e-05
8.2523325e-16
7.6099159e-05
9.9716426e-16
7.6099159e-05
8.4597508e-16
7.6099159e-05
1.044837e-15
7.6099159e-05
9.2832576e-16
7.6099159e-05
1.1434183e-15
7.6099159e-05
1.0535027e-15
7.6099159e-05
1.2421309e-15
7.6099159e-05
1.1628066e-15
7.6099159e-05
1.3387689e-15
7.6099159e-05
1.3080599e-15
7.6099159e-05
1.4341917e-15
7.6099159e-05
1.3201843e-15
7.6099159e-05
1.3210721e-15
7.6099159e-05
1.2183399e-15
7.6099159e-05
1.2100392e-15
7.6099159e-05
1.1056125e-15
7.6099159e-05
1.1621224e-15
7.6099159e-05
1.1656513e-15
7.6099159e-05
1.0937418e-15
7.6099159e-05
8.6663398e-16
7.6099159e-05
1.0035293e-15
7.6099159e-05
9.6029168e-16
7.6099159e-05
1.0809438e-15
7.6099159e-05
9.4791324e-16
7.6099159e-05
8.7731874e-16
7.6099159e-05
9.9894531e-16
7.6099159e-05
9.1366166e-16
7.6099159e-05
8.1709906e-16
7.6099159e-05
7.5226621e-16
7.6099159e-05
8.2942329e-16
7.6099159e-05
1.1299766e-15
7.6099159e-05
1.1820524e-15
7.6099159e-05
1.2158862e-15
7.6099159e-05
1.1334454e-15
7.6099159e-05
1.1157002e-15
7.6099159e-05
1.1142278e-15
7.6099159e-05
1.198996e-15
7.6099159e-05
1.1980538e-15
7.6099159e-05
1.2508104e-15
7.6099159e-05
1.1444853e-15
7.6099159e-05
1.1910721e-15
7.6099159e-05
1.0717887e-15
7.6099159e-05
1.1800991e-15
7.6099159e-05
1.0805812e-15
7.6099159e-05
1.2059136e-15
7.6099159e-05
1.0981126e-15
7.6099159e-05
1.2073401e-15
7.6099159e-05
1.0951322e-15
7.6099159e-05
1.1874815e-15
7.6099159e-05
1.0761956e-15
7.6099159e-05
1.1495351e-15
7.6099159e-05
1.0376869e-15
7.6099159e-05
1.097726e-15
7.6099159e-05
9.8088555e-16
7.6099159e-05
1.0332774e-15
7.6099159e-05
9.1589373e-16
7.6099159e-05
9.7971472e-16
7.6099159e-05
8.5986195e-16
7.6099159e-05
9.2880996e-16
7.6099159e-05
8.0637879e-16
7.6099159e-05
9.3149893e-16
7.6099159e-05
8.581897e-16
7.6099159e-05
1.0138034e-15
7.6099159e-05
8.5604893e-16
7.6099159e-05
9.7571677e-16
7.6099159e-05
9.1801782e-16
7.6099159e-05
1.2694655e-15
7.6099159e-05
1.2608587e-15
7.6099159e-05
1.245916e-15
7.6099159e-05
4.4150804e-16
7.6099159e-05
-7.322055e-17
7.6099159e-05
-8.0207799e-16
7.6099159e-05
-8.8737519e-16
7.6099159e-05
-1.1550677e-15
7.6099159e-05
-1.1415817e-15
7.6099159e-05
-1.3910259e-15
7.6099159e-05
-1.2967001e-15
7.6099159e-05
-1.3313845e-15
7.6099159e-05
-1.1283724e-15
7.6099159e-05
-1.2942773e-15
7.6099159e-05
-1.3022154e-15
7.6099159e-05
-1.5981117e-15
7.6099159e-05
-1.5281588e-15
7.6099159e-05
-1.3375811e-15
7.6099159e-05
-6.596164e-16
7.6099159e-05
-1.4536578e-16
7.6099159e-05
3.6292416e-16
7.6099159e-05
4.1639513e-16
7.6099159e-05
6.068786e-16
7.6099159e-05
6.5495458e-16
7.6099159e-05
9.2336156e-16
7.6099159e-05
9.6847523e-16
7.6099159e-05
1.1326275e-15
7.6099159e-05
1.0712428e-15
7.6099159e-05
1.1628148e-15
7.6099159e-05
1.0673828e-15
7.6099159e-05
1.1460464e-15
7.6099159e-05
1.0647015e-15
7.6099159e-05
1.1905293e-15
7.6099159e-05
1.154937e-15
7.6099159e-05
1.2383159e-15
7.6099159e-05
1.1232178e-15
7.6099159e-05
1.1933839e-15
7.6099159e-05
1.2825974e-15
7.6099159e-05
1.5616867e-15
7.6099159e-05
1.6707925e-15
7.6099159e-05
1.5090805e-15
7.6099159e-05
8.9480619e-16
7.6099159e-05
2.8101537e-16
7.6099159e-05
-1.7361249e-16
7.6099159e-05
-3.4059349e-16
7.6099159e-05
-3.4419147e-16
7.6099159e-05
-6.6250455e-16
7.6099159e-05
-8.7016123e-16
7.6099159e-05
-1.0487556e-15
7.6099159e-05
-7.136769e-16
7.6099159e-05
-4.1857292e-16
7.6099159e-05
1.8310126e-16
7.6099159e-05
5.073403e-16
7.6099159e-05
9.9396992e-16
7.6099159e-05
1.1477052e-15
7.6099159e-05
1.2240672e-15
7.6099159e-05
7.8474484e-16
7.6099159e-05
2.0719057e-16
7.6099159e-05
-5.150046e-16
7.6099159e-05
-9.7930191e-16
7.6099159e-05
-1.1583835e-15
7.6099159e-05
-1.0242923e-15
7.6099159e-05
-5.9655031e-16
7.6099159e-05
-1.4941191e-16
7.6099159e-05
1.7812703e-16
7.6099159e-05
2.7089254e-16
7.6099159e-05
4.5524039e-16
7.6099159e-05
8.4671354e-16
7.6099159e-05
1.1802862e-15
7.6099159e-05
1.1921434e-15
7.6099159e-05
8.2850932e-16
7.6099159e-05
2.1932888e-16
7.6099159e-05
-3.5744673e-16
7.6099159e-05
-8.4476179e-16
7.6099159e-05
-1.1069608e-15
7.6099159e-05
-1.193148e-15
7.6099159e-05
-9.6302469e-16
7.6099159e-05
-4.5381755e-16
7.6099159e-05
9.8544487e-17
7.6099159e-05
6.1226953e-16
7.6099159e-05
9.6268321e-16
7.6099159e-05
1.024186e-15
7.6099159e-05
8.3392501e-16
7.6099159e-05
3.6421518e-16
7.6099159e-05
-1.497371e-17
7.6099159e-05
-2.0296752e-16
7.6099159e-05
-3.0496275e-16
7.6099159e-05
-5.8082111e-16
7.6099159e-05
-9.9236555e-16
7.6099159e-05
-1.1732361e-15
7.6099159e-05
-1.0184811e-15
7.6099159e-05
-3.1665048e-16
7.6099159e-05
3.8341655e-16
7.6099159e-05
1.0279951e-15
7.6099159e-05
1.1518199e-15
7.6099159e-05
9.0641817e-16
7.6099159e-05
3.204577e-16
7.6099159e-05
-2.7212742e-16
7.6099159e-05
-5.9198637e-16
7.6099159e-05
-3.3537486e-16
7.6099159e-05
5.0169339e-17
7.6099159e-05
6.3538813e-16
7.6099159e-05
8.9154569e-16
7.6099159e-05
8.6077672e-16
7.6099159e-05
4.413918e-16
7.6099159e-05
-4.5958609e-17
7.6099159e-05
-6.3304111e-16
7.6099159e-05
-9.4625159e-16
7.6099159e-05
-9.3134506e-16
7.6099159e-05
-6.2871423e-16
7.6099159e-05
-1.3259773e-16
7.6099159e-05
4.3157901e-16
7.6099159e-05
6.8268415e-16
7.6099159e-05
5.6748449e-16
7.6099159e-05
2.0787541e-16
7.6099159e-05
-2.42678e-16
7.6099159e-05
-7.113424e-16
7.6099159e-05
-1.0192938e-15
7.6099159e-05
-1.0295675e-15
7.6099159e-05
-7.8305637e-16
7.6099159e-05
-2.3302306e-16
7.6099159e-05
4.1840683e-16
7.6099159e-05
7.6139611e-16
7.6099159e-05
5.8664799e-16
7.6099159e-05
1.6070974e-16
7.6099159e-05
-5.1952273e-16
7.6099159e-05
-8.8377282e-16
7.6099159e-05
-7.8526221e-16
7.6099159e-05
-2.153695e-16
7.6099159e-05
5.2049346e-16
7.6099159e-05
9.5130156e-16
7.6099159e-05
6.1374374e-16
7.6099159e-05
-4.3737288e-17
7.6099159e-05
-6.9152842e-16
7.6099159e-05
-6.9454699e-16
7.6099159e-05
-1.389203e-16
7.6099159e-05
5.0123181e-16
7.6099159e-05
8.767879e-16
7.6099159e-05
9.3729257e-16
7.6099159e-05
8.2279847e-16
7.6099159e-05
8.5409785e-16
7.6099159e-05
9.8052531e-16
7.6099159e-05
1.0895127e-15
7.6099159e-05
1.0576636e-15
7.6099159e-05
1.1769887e-15
7.6099159e-05
1.5921885e-15
7.6099159e-05
1.7628054e-15
7.6099159e-05
8.2483119e-16
-1.1799186e-16
0.00023312986
0.00043770622
0.00018548526
0.00017459867
0.00015018421
9.693952e-05
0.0001310242
4.9741128e-05
0.00011965162
2.7696002e-05
0.0001131446
1.5916621e-05
0.00010931814
9.0865051e-06
0.00010710183
5.2976339e-06
0.0001058215
3.001559e-06
0.00010509347
1.7127867e-06
0.00010468612
9.4305472e-07
0.00010446306
5.1623523e-07
0.00010434425
2.7031248e-07
0.00010428311
1.3819329e-07
0.00010425319
6.5914044e-08
0.00010423959
2.923441e-08
0.0001042342
1.0752385e-08
0.00010423268
2.4045005e-09
0.00010423281
-1.0812298e-09
0.00010423352
-2.1168906e-09
0.00010423431
-2.1447757e-09
0.000104235
-1.779874e-09
0.00010423553
-1.3483346e-09
0.00010423592
-9.6048967e-10
0.00010423618
-6.5767155e-10
0.00010423636
-4.3574629e-10
0.00010423648
-2.8159649e-10
0.00010423655
-1.7784401e-10
0.0001042366
-1.10146e-10
0.00010423662
-6.6918188e-11
0.00010423664
-3.9931207e-11
0.00010423665
-2.3382033e-11
0.00010423666
-1.3428414e-11
0.00010423666
-7.5474246e-12
0.00010423666
-4.1409063e-12
0.00010423666
-2.20623e-12
0.00010423666
-1.1325503e-12
0.00010423666
-5.5164118e-13
0.00010423666
-2.4849122e-13
0.00010423666
-9.7435576e-14
0.00010423666
-2.6894794e-14
0.00010423666
3.6804469e-15
0.00010423666
1.444919e-14
0.00010423666
1.554866e-14
0.00010423666
1.2152394e-14
0.00010423666
8.3473154e-15
0.00010423666
5.8185015e-15
0.00010423666
4.4325195e-15
0.00010423666
3.7813329e-15
0.00010423666
3.0322741e-15
0.00010423666
2.152852e-15
0.00010423666
1.2710592e-15
0.00010423666
6.518711e-17
0.00010423666
-5.4233081e-16
0.00010423666
-9.7962861e-16
0.00010423666
-6.9994738e-16
0.00010423666
-1.4569349e-16
0.00010423666
9.050747e-16
0.00010423666
8.3263384e-16
0.00010423666
1.187609e-15
0.00010423666
7.5741845e-16
0.00010423666
7.186648e-16
0.00010423666
6.8169681e-16
0.00010423666
5.1934845e-16
0.00010423666
5.2634106e-16
0.00010423666
1.3515698e-16
0.00010423666
1.6697661e-16
0.00010423666
-3.0037788e-16
0.00010423666
-2.9535544e-16
0.00010423666
-2.7568865e-16
0.00010423666
-2.0416664e-16
0.00010423666
7.4040152e-17
0.00010423666
-4.8195964e-17
0.00010423666
7.2449857e-17
0.00010423666
-1.4373521e-16
0.00010423666
-1.2056762e-18
0.00010423666
-2.325241e-16
0.00010423666
1.8490055e-17
0.00010423666
-2.1510571e-16
0.00010423666
8.7044345e-17
0.00010423666
-2.1075902e-16
0.00010423666
9.3475403e-17
0.00010423666
-2.5138586e-16
0.00010423666
7.2027272e-17
0.00010423666
-2.8322855e-16
0.00010423666
7.4858631e-17
0.00010423666
-2.7244764e-16
0.00010423666
1.3085495e-16
0.00010423666
-1.7828712e-16
0.00010423666
2.5690523e-16
0.00010423666
-2.768776e-17
0.00010423666
3.8972963e-16
0.00010423666
1.1746339e-16
0.00010423666
5.2936152e-16
0.00010423666
2.775271e-16
0.00010423666
6.4025731e-16
0.00010423666
2.8320731e-16
0.00010423666
5.4432622e-16
0.00010423666
1.4727838e-16
0.00010423666
4.3767801e-16
0.00010423666
3.0882372e-17
0.00010423666
2.9070935e-16
0.00010423666
-1.0701362e-16
0.00010423666
-3.4187405e-18
0.00010423666
-5.7265714e-16
0.00010423666
4.9842077e-17
0.00010423666
7.4304147e-17
0.00010423666
1.0315781e-15
0.00010423666
1.2390017e-15
0.00010423666
1.5013398e-15
0.00010423666
1.3744243e-15
0.00010423666
9.8797568e-16
0.00010423666
3.7665477e-16
0.00010423666
3.0526145e-16
0.00010423666
-3.0312499e-16
0.00010423666
3.2496918e-16
0.00010423666
-2.980268e-17
0.00010423666
3.1654533e-16
0.00010423666
-8.0092984e-18
0.00010423666
1.7304102e-16
0.00010423666
-5.3831691e-17
0.00010423666
1.8074657e-16
0.00010423666
2.8737605e-17
0.00010423666
2.636455e-16
0.00010423666
5.6406065e-17
0.00010423666
2.6416429e-16
0.00010423666
3.8856195e-17
0.00010423666
2.7330836e-16
0.00010423666
7.4096268e-17
0.00010423666
3.0977395e-16
0.00010423666
1.1738431e-16
0.00010423666
3.1959374e-16