/*--------------------------------*- C++ -*----------------------------------*\
| =========                 |                                                 |
| \\      /  F ield         | OpenFOAM: The Open Source CFD Toolbox           |
|  \\    /   O peration     | Version:  2206                                  |
|   \\  /    A nd           | Website:  www.openfoam.com                      |
|    \\/     M anipulation  |                                                 |
\*---------------------------------------------------------------------------*/
FoamFile
{
    version     2.0;
    format      ascii;
    arch        "LSB;label=32;scalar=64";
    class       volVectorField;
    location    "4";
    object      U;
}
// * * * * * * * * * * * * * * * * * * * * * * * * * * * * * * * * * * * * * //

dimensions      [0 1 -1 0 0 0 0];

internalField   nonuniform List<vector> 
15000
(
(0.15962853 0.053997677 0)
(0.11557193 0.0064916385 0)
(0.064251361 0.0014144174 0)
(0.055918598 0.00074959796 0)
(0.047595817 0.00028826659 0)
(0.044708799 0.00019884203 0)
(0.042412494 9.0521481e-05 0)
(0.041406638 6.0127919e-05 0)
(0.040707476 2.8979727e-05 0)
(0.04037699 1.8020008e-05 0)
(0.040167798 8.6621749e-06 0)
(0.04006866 4.9955228e-06 0)
(0.040011054 2.2672634e-06 0)
(0.039985308 1.1735154e-06 0)
(0.039971973 4.4651745e-07 0)
(0.039967049 1.7385823e-07 0)
(0.03996518 1.4148718e-08 0)
(0.039965127 -3.0109807e-08 0)
(0.039965544 -4.8596343e-08 0)
(0.039966152 -4.3186018e-08 0)
(0.03996668 -3.5703452e-08 0)
(0.039967111 -2.6008281e-08 0)
(0.039967422 -1.852121e-08 0)
(0.039967642 -1.2446488e-08 0)
(0.03996779 -8.24025e-09 0)
(0.039967887 -5.2648689e-09 0)
(0.039967949 -3.3186552e-09 0)
(0.039967988 -2.0381209e-09 0)
(0.039968012 -1.2350514e-09 0)
(0.039968026 -7.3191684e-10 0)
(0.039968035 -4.2663156e-10 0)
(0.03996804 -2.4269474e-10 0)
(0.039968042 -1.3501088e-10 0)
(0.039968044 -7.307298e-11 0)
(0.039968045 -3.8400506e-11 0)
(0.039968045 -1.9322738e-11 0)
(0.039968045 -8.9536489e-12 0)
(0.039968046 -3.6408437e-12 0)
(0.039968046 -1.1565067e-12 0)
(0.039968046 -2.6892174e-13 0)
(0.039968046 -4.3212684e-14 0)
(0.039968046 3.1417994e-14 0)
(0.039968046 2.1423526e-13 0)
(0.039968046 2.6732313e-13 0)
(0.039968046 1.6374653e-14 0)
(0.039968046 -3.4560702e-13 0)
(0.039968046 -6.019152e-13 0)
(0.039968046 -6.7371616e-13 0)
(0.039968046 -5.943721e-13 0)
(0.039968046 -4.5178684e-13 0)
(0.039968046 -3.6676825e-13 0)
(0.039968046 -2.573713e-13 0)
(0.039968046 -2.4919765e-13 0)
(0.039968046 -1.3685387e-13 0)
(0.039968046 -3.2096046e-14 0)
(0.039968046 1.1037496e-13 0)
(0.039968046 2.0492776e-13 0)
(0.039968046 3.333671e-13 0)
(0.039968046 3.2847562e-13 0)
(0.039968046 3.3247213e-13 0)
(0.039968046 2.8879785e-13 0)
(0.039968046 2.7914956e-13 0)
(0.039968046 2.6737911e-13 0)
(0.039968046 2.3321225e-13 0)
(0.039968046 2.2292409e-13 0)
(0.039968046 1.7927302e-13 0)
(0.039968046 1.9442498e-13 0)
(0.039968046 1.6169417e-13 0)
(0.039968046 1.7631446e-13 0)
(0.039968046 1.7712844e-13 0)
(0.039968046 2.1870235e-13 0)
(0.039968046 2.3070424e-13 0)
(0.039968046 2.4136351e-13 0)
(0.039968046 2.3438525e-13 0)
(0.039968046 2.3091688e-13 0)
(0.039968046 2.299773e-13 0)
(0.039968046 2.2933761e-13 0)
(0.039968046 2.4127534e-13 0)
(0.039968046 2.3739005e-13 0)
(0.039968046 2.4765016e-13 0)
(0.039968046 2.3553519e-13 0)
(0.039968046 2.4546497e-13 0)
(0.039968046 2.3284326e-13 0)
(0.039968046 2.4783619e-13 0)
(0.039968046 2.3650901e-13 0)
(0.039968046 2.525367e-13 0)
(0.039968046 2.4247465e-13 0)
(0.039968046 2.5976034e-13 0)
(0.039968046 2.5306253e-13 0)
(0.039968046 2.7083199e-13 0)
(0.039968046 2.6765548e-13 0)
(0.039968046 2.8011263e-13 0)
(0.039968046 2.7811143e-13 0)
(0.039968046 2.876513e-13 0)
(0.039968046 2.945807e-13 0)
(0.039968046 2.979895e-13 0)
(0.039968046 2.9656737e-13 0)
(0.039968046 2.8046652e-13 0)
(0.039968046 2.8347619e-13 0)
(0.039968046 2.6277739e-13 0)
(0.039968046 2.6232002e-13 0)
(0.039968046 2.5719712e-13 0)
(0.039968046 2.851329e-13 0)
(0.039968046 2.8004514e-13 0)
(0.039968046 2.7816761e-13 0)
(0.039968046 2.6496638e-13 0)
(0.039968046 2.284858e-13 0)
(0.039968046 1.5404722e-13 0)
(0.039968046 6.9273253e-14 0)
(0.039968046 1.2723161e-14 0)
(0.039968046 4.532267e-14 0)
(0.039968046 6.8527406e-14 0)
(0.039968046 1.1635862e-13 0)
(0.039968046 1.3734937e-13 0)
(0.039968046 2.1131734e-13 0)
(0.039968046 2.4931855e-13 0)
(0.039968046 2.7537407e-13 0)
(0.039968046 2.6303942e-13 0)
(0.039968046 2.6096514e-13 0)
(0.039968046 2.497692e-13 0)
(0.039968046 2.6024344e-13 0)
(0.039968046 2.6236804e-13 0)
(0.039968046 2.6596369e-13 0)
(0.039968046 2.6014937e-13 0)
(0.039968046 2.4869538e-13 0)
(0.039968046 2.4779994e-13 0)
(0.039968046 2.3792805e-13 0)
(0.039968046 2.4773018e-13 0)
(0.039968046 2.396122e-13 0)
(0.039968046 2.5136429e-13 0)
(0.039968046 2.4091423e-13 0)
(0.039968046 2.5103154e-13 0)
(0.039968046 2.4002103e-13 0)
(0.039968046 2.4866941e-13 0)
(0.039968046 2.3765485e-13 0)
(0.039968046 2.4421925e-13 0)
(0.039968046 2.3348549e-13 0)
(0.039968046 2.3896391e-13 0)
(0.039968046 2.2776989e-13 0)
(0.039968046 2.3257978e-13 0)
(0.039968046 2.2112767e-13 0)
(0.039968046 2.278619e-13 0)
(0.039968046 2.1582211e-13 0)
(0.039968046 2.2253891e-13 0)
(0.039968046 2.0798754e-13 0)
(0.039968046 2.2089095e-13 0)
(0.039968046 2.1290794e-13 0)
(0.039968046 2.3275398e-13 0)
(0.039968046 2.1346048e-13 0)
(0.039968046 2.2273109e-13 0)
(0.039968046 2.0861326e-13 0)
(0.039968046 2.5486524e-13 0)
(0.039968046 2.7345323e-13 0)
(0.039968046 2.9107663e-13 0)
(0.039968046 1.9442646e-13 0)
(0.039968046 1.1362127e-13 0)
(0.039968046 -3.807936e-14 0)
(0.039968046 -1.0848746e-13 0)
(0.039968046 -1.958026e-13 0)
(0.039968046 -2.2898018e-13 0)
(0.039968046 -2.8088688e-13 0)
(0.039968046 -2.7933534e-13 0)
(0.039968046 -2.8480353e-13 0)
(0.039968046 -2.5579525e-13 0)
(0.039968046 -2.7020596e-13 0)
(0.039968046 -2.6522982e-13 0)
(0.039968046 -3.0925648e-13 0)
(0.039968046 -3.1844307e-13 0)
(0.039968046 -3.082673e-13 0)
(0.039968046 -2.1283282e-13 0)
(0.039968046 -1.2410039e-13 0)
(0.039968046 1.5203612e-15 0)
(0.039968046 6.7990976e-14 0)
(0.039968046 1.4181569e-13 0)
(0.039968046 1.8112729e-13 0)
(0.039968046 2.3243397e-13 0)
(0.039968046 2.4234046e-13 0)
(0.039968046 2.610504e-13 0)
(0.039968046 2.474671e-13 0)
(0.039968046 2.5569943e-13 0)
(0.039968046 2.4097164e-13 0)
(0.039968046 2.5136804e-13 0)
(0.039968046 2.4014827e-13 0)
(0.039968046 2.5806409e-13 0)
(0.039968046 2.5515843e-13 0)
(0.039968046 2.6946122e-13 0)
(0.039968046 2.5283557e-13 0)
(0.039968046 2.5821323e-13 0)
(0.039968046 2.6352806e-13 0)
(0.039968046 3.0644597e-13 0)
(0.039968046 3.3974194e-13 0)
(0.039968046 3.3913746e-13 0)
(0.039968046 2.6356317e-13 0)
(0.039968046 1.7222771e-13 0)
(0.039968046 5.1830987e-14 0)
(0.039968046 -2.1212124e-14 0)
(0.039968046 -7.3517376e-14 0)
(0.039968046 -1.5499995e-13 0)
(0.039968046 -2.1645411e-13 0)
(0.039968046 -2.5910463e-13 0)
(0.039968046 -2.1804372e-13 0)
(0.039968046 -1.6947523e-13 0)
(0.039968046 -4.1175174e-14 0)
(0.039968046 5.7609859e-14 0)
(0.039968046 1.8166048e-13 0)
(0.039968046 2.5250567e-13 0)
(0.039968046 2.973245e-13 0)
(0.039968046 2.4931275e-13 0)
(0.039968046 1.5596923e-13 0)
(0.039968046 6.9943697e-15 0)
(0.039968046 -1.3184985e-13 0)
(0.039968046 -2.3425244e-13 0)
(0.039968046 -2.6726409e-13 0)
(0.039968046 -2.2822616e-13 0)
(0.039968046 -1.4271022e-13 0)
(0.039968046 -3.7669137e-14 0)
(0.039968046 3.6016653e-14 0)
(0.039968046 1.1353396e-13 0)
(0.039968046 2.0854275e-13 0)
(0.039968046 2.864198e-13 0)
(0.039968046 3.0582829e-13 0)
(0.039968046 2.5446503e-13 0)
(0.039968046 1.5496696e-13 0)
(0.039968046 2.541057e-14 0)
(0.039968046 -1.0686637e-13 0)
(0.039968046 -2.1092901e-13 0)
(0.039968046 -2.7806761e-13 0)
(0.039968046 -2.7416542e-13 0)
(0.039968046 -2.0335534e-13 0)
(0.039968046 -1.0232978e-13 0)
(0.039968046 3.4184126e-14 0)
(0.039968046 1.5545168e-13 0)
(0.039968046 2.3342316e-13 0)
(0.039968046 2.4181705e-13 0)
(0.039968046 1.868624e-13 0)
(0.039968046 9.2850784e-14 0)
(0.039968046 6.2787557e-15 0)
(0.039968046 -6.321064e-14 0)
(0.039968046 -1.4543997e-13 0)
(0.039968046 -2.3552727e-13 0)
(0.039968046 -2.8835239e-13 0)
(0.039968046 -2.7803173e-13 0)
(0.039968046 -1.7893042e-13 0)
(0.039968046 -4.0830536e-14 0)
(0.039968046 1.189732e-13 0)
(0.039968046 2.1213314e-13 0)
(0.039968046 2.3753872e-13 0)
(0.039968046 1.8265078e-13 0)
(0.039968046 4.9358072e-14 0)
(0.039968046 -6.7055003e-14 0)
(0.039968046 -1.1288204e-13 0)
(0.039968046 -1.1052908e-13 0)
(0.039968046 -1.4993912e-14 0)
(0.039968046 7.2738736e-14 0)
(0.039968046 1.4374224e-13 0)
(0.039968046 1.4947084e-13 0)
(0.039968046 1.1601096e-13 0)
(0.039968046 2.5734576e-15 0)
(0.039968046 -1.0452967e-13 0)
(0.039968046 -1.787945e-13 0)
(0.039968046 -1.9795192e-13 0)
(0.039968046 -1.6053195e-13 0)
(0.039968046 -3.4411218e-14 0)
(0.039968046 7.1120952e-14 0)
(0.039968046 1.3466574e-13 0)
(0.039968046 1.4219935e-13 0)
(0.039968046 9.2056474e-14 0)
(0.039968046 -1.8352353e-14 0)
(0.039968046 -1.2903039e-13 0)
(0.039968046 -2.0844692e-13 0)
(0.039968046 -2.3021326e-13 0)
(0.039968046 -1.8301516e-13 0)
(0.039968046 -4.4855365e-14 0)
(0.039968046 7.6598284e-14 0)
(0.039968046 1.397491e-13 0)
(0.039968046 1.4074449e-13 0)
(0.039968046 3.2087561e-14 0)
(0.039968046 -7.6274426e-14 0)
(0.039968046 -1.4728382e-13 0)
(0.039968046 -1.3442033e-13 0)
(0.039968046 -3.6012793e-14 0)
(0.039968046 8.0563413e-14 0)
(0.039968046 1.1478475e-13 0)
(0.039968046 7.947171e-14 0)
(0.039968046 -2.3473514e-14 0)
(0.039968046 -6.7032699e-14 0)
(0.039968046 -4.9678456e-14 0)
(0.039968046 1.3134796e-14 0)
(0.039968046 7.2479048e-14 0)
(0.039968046 1.1367329e-13 0)
(0.039968046 1.4114679e-13 0)
(0.039968046 1.8315716e-13 0)
(0.039968046 2.282824e-13 0)
(0.039968046 2.5798342e-13 0)
(0.039968046 2.5084551e-13 0)
(0.039968046 2.4937684e-13 0)
(0.039968046 2.9909103e-13 0)
(0.039968046 3.5453348e-13 0)
(0.039968046 2.548233e-13 0)
(0.039968046 7.077823e-14 0)
(0.36732383 0.14062829 0)
(0.29754389 0.025079377 0)
(0.1860793 0.0083694575 0)
(0.16132807 0.0041218721 0)
(0.13901859 0.0019375787 0)
(0.13040448 0.0011770231 0)
(0.12396461 0.00061112888 0)
(0.12095998 0.0003719202 0)
(0.1189454 0.00019726714 0)
(0.11794826 0.0001156422 0)
(0.11733081 6.0260534e-05 0)
(0.11702581 3.3415664e-05 0)
(0.11685066 1.6511388e-05 0)
(0.11676842 8.3922547e-06 0)
(0.1167257 3.6627843e-06 0)
(0.11670834 1.5204298e-06 0)
(0.1167012 3.9917964e-07 0)
(0.11669986 -2.8189305e-08 0)
(0.1167004 -1.9904414e-07 0)
(0.11670175 -2.1584313e-07 0)
(0.11670304 -1.9024635e-07 0)
(0.11670415 -1.4594527e-07 0)
(0.11670497 -1.0632164e-07 0)
(0.11670557 -7.3271337e-08 0)
(0.11670597 -4.9159104e-08 0)
(0.11670624 -3.1926578e-08 0)
(0.11670642 -2.0337379e-08 0)
(0.11670653 -1.2652466e-08 0)
(0.11670659 -7.7408384e-09 0)
(0.11670664 -4.6412898e-09 0)
(0.11670666 -2.7359154e-09 0)
(0.11670667 -1.579476e-09 0)
(0.11670668 -8.9329598e-10 0)
(0.11670669 -4.9310126e-10 0)
(0.11670669 -2.6505197e-10 0)
(0.11670669 -1.375388e-10 0)
(0.11670669 -6.7872293e-11 0)
(0.11670669 -3.0943988e-11 0)
(0.11670669 -1.2490593e-11 0)
(0.11670669 -4.1314651e-12 0)
(0.11670669 -7.4996398e-13 0)
(0.11670669 6.6660825e-13 0)
(0.11670669 1.3765478e-12 0)
(0.11670669 1.4095589e-12 0)
(0.11670669 6.2450829e-13 0)
(0.11670669 -3.0960181e-13 0)
(0.11670669 -9.2313719e-13 0)
(0.11670669 -1.0146655e-12 0)
(0.11670669 -8.2392354e-13 0)
(0.11670669 -5.7930781e-13 0)
(0.11670669 -4.8035675e-13 0)
(0.11670669 -3.1033182e-13 0)
(0.11670669 -4.041315e-13 0)
(0.11670669 -2.6120562e-13 0)
(0.11670669 -1.5311122e-13 0)
(0.11670669 1.1436283e-13 0)
(0.11670669 3.3241005e-13 0)
(0.11670669 7.075477e-13 0)
(0.11670669 6.6682453e-13 0)
(0.11670669 7.5316551e-13 0)
(0.11670669 5.9327572e-13 0)
(0.11670669 6.0034261e-13 0)
(0.11670669 5.6357323e-13 0)
(0.11670669 5.1546182e-13 0)
(0.11670669 4.7839842e-13 0)
(0.11670669 3.6985885e-13 0)
(0.11670669 3.7965914e-13 0)
(0.11670669 2.7146229e-13 0)
(0.11670669 2.8172985e-13 0)
(0.11670669 3.0720481e-13 0)
(0.11670669 3.6428529e-13 0)
(0.11670669 4.5472697e-13 0)
(0.11670669 4.3678651e-13 0)
(0.11670669 4.6792994e-13 0)
(0.11670669 4.1483027e-13 0)
(0.11670669 4.5040878e-13 0)
(0.11670669 4.0185903e-13 0)
(0.11670669 4.7213567e-13 0)
(0.11670669 4.1901593e-13 0)
(0.11670669 4.925868e-13 0)
(0.11670669 4.1607645e-13 0)
(0.11670669 4.8784964e-13 0)
(0.11670669 4.0424703e-13 0)
(0.11670669 4.8625938e-13 0)
(0.11670669 4.041559e-13 0)
(0.11670669 4.9261511e-13 0)
(0.11670669 4.1440815e-13 0)
(0.11670669 5.1096444e-13 0)
(0.11670669 4.4164557e-13 0)
(0.11670669 5.4261918e-13 0)
(0.11670669 4.8012813e-13 0)
(0.11670669 5.703306e-13 0)
(0.11670669 5.0873985e-13 0)
(0.11670669 5.9584915e-13 0)
(0.11670669 5.5078736e-13 0)
(0.11670669 6.2789636e-13 0)
(0.11670669 5.5250257e-13 0)
(0.11670669 5.8851902e-13 0)
(0.11670669 5.1367731e-13 0)
(0.11670669 5.5920164e-13 0)
(0.11670669 4.8163108e-13 0)
(0.11670669 5.6304799e-13 0)
(0.11670669 5.2479583e-13 0)
(0.11670669 5.6290599e-13 0)
(0.11670669 4.3497222e-13 0)
(0.11670669 5.0054101e-13 0)
(0.11670669 3.8756138e-13 0)
(0.11670669 3.7439013e-13 0)
(0.11670669 2.0648697e-13 0)
(0.11670669 1.5442432e-13 0)
(0.11670669 1.9092126e-13 0)
(0.11670669 2.2024812e-13 0)
(0.11670669 2.4428398e-13 0)
(0.11670669 3.2623788e-13 0)
(0.11670669 3.291154e-13 0)
(0.11670669 5.2464888e-13 0)
(0.11670669 4.8142727e-13 0)
(0.11670669 5.4386126e-13 0)
(0.11670669 4.6819954e-13 0)
(0.11670669 5.0085048e-13 0)
(0.11670669 4.695696e-13 0)
(0.11670669 5.2848467e-13 0)
(0.11670669 5.0012003e-13 0)
(0.11670669 5.3803476e-13 0)
(0.11670669 4.7588536e-13 0)
(0.11670669 5.0933772e-13 0)
(0.11670669 4.4984108e-13 0)
(0.11670669 5.0281163e-13 0)
(0.11670669 4.5414606e-13 0)
(0.11670669 5.099137e-13 0)
(0.11670669 4.6068859e-13 0)
(0.11670669 5.0844984e-13 0)
(0.11670669 4.6063626e-13 0)
(0.11670669 5.0101991e-13 0)
(0.11670669 4.5565281e-13 0)
(0.11670669 4.8787846e-13 0)
(0.11670669 4.4502289e-13 0)
(0.11670669 4.7202638e-13 0)
(0.11670669 4.2925332e-13 0)
(0.11670669 4.5226551e-13 0)
(0.11670669 4.1133219e-13 0)
(0.11670669 4.3730139e-13 0)
(0.11670669 3.9655398e-13 0)
(0.11670669 4.2236508e-13 0)
(0.11670669 3.7926563e-13 0)
(0.11670669 4.2181683e-13 0)
(0.11670669 3.9694591e-13 0)
(0.11670669 4.5013894e-13 0)
(0.11670669 3.9438082e-13 0)
(0.11670669 4.2574654e-13 0)
(0.11670669 4.0284886e-13 0)
(0.11670669 5.2680285e-13 0)
(0.11670669 5.4302698e-13 0)
(0.11670669 5.5714684e-13 0)
(0.11670669 2.8037187e-13 0)
(0.11670669 8.8973256e-14 0)
(0.11670669 -2.0995461e-13 0)
(0.11670669 -3.0013592e-13 0)
(0.11670669 -4.190281e-13 0)
(0.11670669 -4.4792588e-13 0)
(0.11670669 -5.4918955e-13 0)
(0.11670669 -5.3464481e-13 0)
(0.11670669 -5.507613e-13 0)
(0.11670669 -4.8649085e-13 0)
(0.11670669 -5.3731539e-13 0)
(0.11670669 -5.4428618e-13 0)
(0.11670669 -6.5049095e-13 0)
(0.11670669 -6.4734194e-13 0)
(0.11670669 -5.8019627e-13 0)
(0.11670669 -3.4588915e-13 0)
(0.11670669 -1.3485134e-13 0)
(0.11670669 9.3179119e-14 0)
(0.11670669 1.6641368e-13 0)
(0.11670669 2.6973908e-13 0)
(0.11670669 3.1633077e-13 0)
(0.11670669 4.2274809e-13 0)
(0.11670669 4.4605171e-13 0)
(0.11670669 4.9952775e-13 0)
(0.11670669 4.7577934e-13 0)
(0.11670669 5.0313585e-13 0)
(0.11670669 4.6809938e-13 0)
(0.11670669 4.9517612e-13 0)
(0.11670669 4.6516663e-13 0)
(0.11670669 5.1155889e-13 0)
(0.11670669 4.9983596e-13 0)
(0.11670669 5.3222218e-13 0)
(0.11670669 4.8753865e-13 0)
(0.11670669 5.0779263e-13 0)
(0.11670669 5.3552948e-13 0)
(0.11670669 6.4348286e-13 0)
(0.11670669 6.9731494e-13 0)
(0.11670669 6.6394202e-13 0)
(0.11670669 4.4381621e-13 0)
(0.11670669 2.2365491e-13 0)
(0.11670669 7.8795807e-15 0)
(0.11670669 -9.4367677e-14 0)
(0.11670669 -1.351164e-13 0)
(0.11670669 -2.8006872e-13 0)
(0.11670669 -3.8763148e-13 0)
(0.11670669 -4.6785938e-13 0)
(0.11670669 -3.5729256e-13 0)
(0.11670669 -2.4374659e-13 0)
(0.11670669 5.8404501e-15 0)
(0.11670669 1.6970687e-13 0)
(0.11670669 3.9102732e-13 0)
(0.11670669 4.8753032e-13 0)
(0.11670669 5.4454229e-13 0)
(0.11670669 3.9773655e-13 0)
(0.11670669 1.8345353e-13 0)
(0.11670669 -1.212119e-13 0)
(0.11670669 -3.5798523e-13 0)
(0.11670669 -4.8242584e-13 0)
(0.11670669 -4.7891825e-13 0)
(0.11670669 -3.3791963e-13 0)
(0.11670669 -1.599252e-13 0)
(0.11670669 1.450408e-14 0)
(0.11670669 9.9053027e-14 0)
(0.11670669 2.0494172e-13 0)
(0.11670669 3.842479e-13 0)
(0.11670669 5.2839569e-13 0)
(0.11670669 5.5449261e-13 0)
(0.11670669 4.2320031e-13 0)
(0.11670669 1.9173865e-13 0)
(0.11670669 -6.0540866e-14 0)
(0.11670669 -2.9616335e-13 0)
(0.11670669 -4.5099569e-13 0)
(0.11670669 -5.251151e-13 0)
(0.11670669 -4.7142923e-13 0)
(0.11670669 -2.8540754e-13 0)
(0.11670669 -6.9998523e-14 0)
(0.11670669 1.7544216e-13 0)
(0.11670669 3.7157097e-13 0)
(0.11670669 4.409432e-13 0)
(0.11670669 4.0873616e-13 0)
(0.11670669 2.4380933e-13 0)
(0.11670669 7.198028e-14 0)
(0.11670669 -4.6331446e-14 0)
(0.11670669 -1.302488e-13 0)
(0.11670669 -2.6210935e-13 0)
(0.11670669 -4.4198171e-13 0)
(0.11670669 -5.278315e-13 0)
(0.11670669 -4.8803877e-13 0)
(0.11670669 -2.2968699e-13 0)
(0.11670669 5.6501309e-14 0)
(0.11670669 3.5034179e-13 0)
(0.11670669 4.7001863e-13 0)
(0.11670669 4.1500015e-13 0)
(0.11670669 2.3070276e-13 0)
(0.11670669 -3.2362508e-14 0)
(0.11670669 -2.1159008e-13 0)
(0.11670669 -1.8818567e-13 0)
(0.11670669 -9.6993934e-14 0)
(0.11670669 1.3106601e-13 0)
(0.11670669 2.6580631e-13 0)
(0.11670669 3.2523704e-13 0)
(0.11670669 2.3189312e-13 0)
(0.11670669 8.7763727e-14 0)
(0.11670669 -1.5360203e-13 0)
(0.11670669 -3.1558907e-13 0)
(0.11670669 -3.8328963e-13 0)
(0.11670669 -3.2681284e-13 0)
(0.11670669 -1.7101801e-13 0)
(0.11670669 7.1042226e-14 0)
(0.11670669 2.2485678e-13 0)
(0.11670669 2.5418187e-13 0)
(0.11670669 1.7414825e-13 0)
(0.11670669 2.8075095e-14 0)
(0.11670669 -1.8656677e-13 0)
(0.11670669 -3.5867112e-13 0)
(0.11670669 -4.2811868e-13 0)
(0.11670669 -3.8837338e-13 0)
(0.11670669 -2.1698156e-13 0)
(0.11670669 5.9401606e-14 0)
(0.11670669 2.4654734e-13 0)
(0.11670669 2.5775591e-13 0)
(0.11670669 1.5949737e-13 0)
(0.11670669 -1.0192217e-13 0)
(0.11670669 -2.7965233e-13 0)
(0.11670669 -3.1866132e-13 0)
(0.11670669 -1.7451977e-13 0)
(0.11670669 9.870056e-14 0)
(0.11670669 2.9991675e-13 0)
(0.11670669 2.4694445e-13 0)
(0.11670669 6.3022356e-14 0)
(0.11670669 -1.9090919e-13 0)
(0.11670669 -2.2848719e-13 0)
(0.11670669 -7.3172457e-14 0)
(0.11670669 1.2955622e-13 0)
(0.11670669 2.7083757e-13 0)
(0.11670669 3.2564645e-13 0)
(0.11670669 3.2021418e-13 0)
(0.11670669 3.6145105e-13 0)
(0.11670669 4.2982567e-13 0)
(0.11670669 4.8149667e-13 0)
(0.11670669 4.657665e-13 0)
(0.11670669 4.9413216e-13 0)
(0.11670669 6.4942122e-13 0)
(0.11670669 7.4189193e-13 0)
(0.11670669 4.0537709e-13 0)
(0.11670669 2.5024869e-14 0)
(0.50390834 0.19019021 0)
(0.43847039 0.050431495 0)
(0.29767008 0.022055307 0)
(0.25944374 0.010780095 0)
(0.22598939 0.0055621377 0)
(0.21213187 0.003230799 0)
(0.20205719 0.0017732911 0)
(0.19716897 0.0010457395 0)
(0.19394744 0.00057679505 0)
(0.19230772 0.00033133302 0)
(0.19130242 0.00017832756 0)
(0.19079327 9.7724506e-05 0)
(0.19050201 4.9920931e-05 0)
(0.1903612 2.5324687e-05 0)
(0.19028763 1.1618549e-05 0)
(0.19025609 4.9677808e-06 0)
(0.1902425 1.5957244e-06 0)
(0.19023894 1.7316112e-07 0)
(0.19023899 -3.9988764e-07 0)
(0.19024063 -5.2244447e-07 0)
(0.19024241 -4.848316e-07 0)
(0.19024402 -3.8471246e-07 0)
(0.19024524 -2.8474206e-07 0)
(0.19024615 -1.9919607e-07 0)
(0.19024677 -1.3479637e-07 0)
(0.19024719 -8.8355205e-08 0)
(0.19024746 -5.6636247e-08 0)
(0.19024763 -3.5482989e-08 0)
(0.19024774 -2.1827757e-08 0)
(0.1902478 -1.3168727e-08 0)
(0.19024784 -7.8059009e-09 0)
(0.19024787 -4.5367446e-09 0)
(0.19024788 -2.5845102e-09 0)
(0.19024789 -1.4390706e-09 0)
(0.19024789 -7.8117512e-10 0)
(0.19024789 -4.1059203e-10 0)
(0.1902479 -2.0658558e-10 0)
(0.1902479 -9.7417065e-11 0)
(0.1902479 -4.1623311e-11 0)
(0.1902479 -1.4998824e-11 0)
(0.1902479 -3.3374532e-12 0)
(0.1902479 1.5906611e-12 0)
(0.1902479 3.5554514e-12 0)
(0.1902479 3.6781075e-12 0)
(0.1902479 2.3463352e-12 0)
(0.1902479 6.2591399e-13 0)
(0.1902479 -5.5440666e-13 0)
(0.1902479 -8.871843e-13 0)
(0.1902479 -7.3766507e-13 0)
(0.1902479 -5.1229879e-13 0)
(0.1902479 -4.2630749e-13 0)
(0.1902479 -2.7444078e-13 0)
(0.1902479 -4.3460407e-13 0)
(0.1902479 -3.3168076e-13 0)
(0.1902479 -2.0319494e-13 0)
(0.1902479 1.1147246e-13 0)
(0.1902479 4.3534119e-13 0)
(0.1902479 9.5896747e-13 0)
(0.1902479 9.6763821e-13 0)
(0.1902479 1.0581558e-12 0)
(0.1902479 8.6590455e-13 0)
(0.1902479 8.4773654e-13 0)
(0.1902479 8.2243538e-13 0)
(0.1902479 7.3162724e-13 0)
(0.1902479 6.9505078e-13 0)
(0.1902479 5.267747e-13 0)
(0.1902479 5.5078647e-13 0)
(0.1902479 3.8543915e-13 0)
(0.1902479 4.0184035e-13 0)
(0.1902479 4.2493253e-13 0)
(0.1902479 5.2133152e-13 0)
(0.1902479 6.3831196e-13 0)
(0.1902479 6.3197269e-13 0)
(0.1902479 6.6410958e-13 0)
(0.1902479 6.0040366e-13 0)
(0.1902479 6.3681788e-13 0)
(0.1902479 5.7931615e-13 0)
(0.1902479 6.6684687e-13 0)
(0.1902479 6.0476919e-13 0)
(0.1902479 6.9488396e-13 0)
(0.1902479 5.9772284e-13 0)
(0.1902479 6.8274372e-13 0)
(0.1902479 5.7310927e-13 0)
(0.1902479 6.713633e-13 0)
(0.1902479 5.6423731e-13 0)
(0.1902479 6.7313743e-13 0)
(0.1902479 5.7235402e-13 0)
(0.1902479 6.9535648e-13 0)
(0.1902479 6.09401e-13 0)
(0.1902479 7.4118555e-13 0)
(0.1902479 6.6636306e-13 0)
(0.1902479 7.8485106e-13 0)
(0.1902479 7.1098284e-13 0)
(0.1902479 8.2643241e-13 0)
(0.1902479 7.7734475e-13 0)
(0.1902479 8.7782346e-13 0)
(0.1902479 7.8148749e-13 0)
(0.1902479 8.1953279e-13 0)
(0.1902479 7.2306538e-13 0)
(0.1902479 7.7324625e-13 0)
(0.1902479 6.7943977e-13 0)
(0.1902479 7.7411018e-13 0)
(0.1902479 7.3838531e-13 0)
(0.1902479 7.561135e-13 0)
(0.1902479 5.8495058e-13 0)
(0.1902479 6.6867633e-13 0)
(0.1902479 5.4118269e-13 0)
(0.1902479 5.4840864e-13 0)
(0.1902479 3.4372297e-13 0)
(0.1902479 2.9233772e-13 0)
(0.1902479 3.4670144e-13 0)
(0.1902479 3.9292879e-13 0)
(0.1902479 3.9760444e-13 0)
(0.1902479 4.8259926e-13 0)
(0.1902479 4.9846094e-13 0)
(0.1902479 7.5109356e-13 0)
(0.1902479 7.1997639e-13 0)
(0.1902479 7.8779876e-13 0)
(0.1902479 6.9840892e-13 0)
(0.1902479 7.2957922e-13 0)
(0.1902479 7.0075101e-13 0)
(0.1902479 7.7824279e-13 0)
(0.1902479 7.5303848e-13 0)
(0.1902479 7.9992539e-13 0)
(0.1902479 7.2082326e-13 0)
(0.1902479 7.5799322e-13 0)
(0.1902479 6.7970502e-13 0)
(0.1902479 7.4637444e-13 0)
(0.1902479 6.8381464e-13 0)
(0.1902479 7.5559501e-13 0)
(0.1902479 6.9167939e-13 0)
(0.1902479 7.5291614e-13 0)
(0.1902479 6.8957909e-13 0)
(0.1902479 7.4107793e-13 0)
(0.1902479 6.8032511e-13 0)
(0.1902479 7.2101583e-13 0)
(0.1902479 6.6227727e-13 0)
(0.1902479 6.9557384e-13 0)
(0.1902479 6.3578934e-13 0)
(0.1902479 6.6405682e-13 0)
(0.1902479 6.0573633e-13 0)
(0.1902479 6.3851987e-13 0)
(0.1902479 5.8048992e-13 0)
(0.1902479 6.1296552e-13 0)
(0.1902479 5.5197647e-13 0)
(0.1902479 6.1036647e-13 0)
(0.1902479 5.7856037e-13 0)
(0.1902479 6.5306683e-13 0)
(0.1902479 5.7608949e-13 0)
(0.1902479 6.2034141e-13 0)
(0.1902479 5.932851e-13 0)
(0.1902479 7.7242603e-13 0)
(0.1902479 8.0010877e-13 0)
(0.1902479 8.0338831e-13 0)
(0.1902479 3.860948e-13 0)
(0.1902479 8.0680199e-14 0)
(0.1902479 -3.4316041e-13 0)
(0.1902479 -4.5936651e-13 0)
(0.1902479 -6.2209583e-13 0)
(0.1902479 -6.60719e-13 0)
(0.1902479 -8.0552257e-13 0)
(0.1902479 -7.9001348e-13 0)
(0.1902479 -8.1397788e-13 0)
(0.1902479 -7.202684e-13 0)
(0.1902479 -7.8770912e-13 0)
(0.1902479 -8.0148589e-13 0)
(0.1902479 -9.5390965e-13 0)
(0.1902479 -9.4579879e-13 0)
(0.1902479 -8.3863669e-13 0)
(0.1902479 -4.8240207e-13 0)
(0.1902479 -1.575663e-13 0)
(0.1902479 1.528773e-13 0)
(0.1902479 2.4915282e-13 0)
(0.1902479 3.8054902e-13 0)
(0.1902479 4.4478592e-13 0)
(0.1902479 5.9657617e-13 0)
(0.1902479 6.3662504e-13 0)
(0.1902479 7.1550147e-13 0)
(0.1902479 6.8759417e-13 0)
(0.1902479 7.2587378e-13 0)
(0.1902479 6.781319e-13 0)
(0.1902479 7.1286277e-13 0)
(0.1902479 6.7156409e-13 0)
(0.1902479 7.3378848e-13 0)
(0.1902479 7.1980017e-13 0)
(0.1902479 7.6112322e-13 0)
(0.1902479 6.9880758e-13 0)
(0.1902479 7.2466294e-13 0)
(0.1902479 7.7069261e-13 0)
(0.1902479 9.2480769e-13 0)
(0.1902479 1.0043444e-12 0)
(0.1902479 9.3800786e-13 0)
(0.1902479 6.0178996e-13 0)
(0.1902479 2.5431997e-13 0)
(0.1902479 -4.8998796e-14 0)
(0.1902479 -1.8137487e-13 0)
(0.1902479 -2.2847471e-13 0)
(0.1902479 -4.2848969e-13 0)
(0.1902479 -5.8030995e-13 0)
(0.1902479 -6.8593647e-13 0)
(0.1902479 -5.0763978e-13 0)
(0.1902479 -3.1855415e-13 0)
(0.1902479 4.1574715e-14 0)
(0.1902479 2.7403169e-13 0)
(0.1902479 5.8854224e-13 0)
(0.1902479 7.2303356e-13 0)
(0.1902479 7.9389393e-13 0)
(0.1902479 5.6971123e-13 0)
(0.1902479 2.3820289e-13 0)
(0.1902479 -1.9760709e-13 0)
(0.1902479 -5.2925311e-13 0)
(0.1902479 -6.911958e-13 0)
(0.1902479 -6.7005089e-13 0)
(0.1902479 -4.437561e-13 0)
(0.1902479 -1.7617005e-13 0)
(0.1902479 5.5423975e-14 0)
(0.1902479 1.5795097e-13 0)
(0.1902479 2.9243458e-13 0)
(0.1902479 5.4688844e-13 0)
(0.1902479 7.5520414e-13 0)
(0.1902479 7.870792e-13 0)
(0.1902479 5.8751797e-13 0)
(0.1902479 2.3582843e-13 0)
(0.1902479 -1.216856e-13 0)
(0.1902479 -4.512532e-13 0)
(0.1902479 -6.5629396e-13 0)
(0.1902479 -7.5217632e-13 0)
(0.1902479 -6.5746194e-13 0)
(0.1902479 -3.7194478e-13 0)
(0.1902479 -5.1381557e-14 0)
(0.1902479 2.8938741e-13 0)
(0.1902479 5.4844354e-13 0)
(0.1902479 6.3710422e-13 0)
(0.1902479 5.68408e-13 0)
(0.1902479 3.0779594e-13 0)
(0.1902479 6.4778969e-14 0)
(0.1902479 -9.1326803e-14 0)
(0.1902479 -1.9072945e-13 0)
(0.1902479 -3.7662493e-13 0)
(0.1902479 -6.3489955e-13 0)
(0.1902479 -7.615656e-13 0)
(0.1902479 -6.9555093e-13 0)
(0.1902479 -3.0480731e-13 0)
(0.1902479 1.1292026e-13 0)
(0.1902479 5.2902523e-13 0)
(0.1902479 6.791595e-13 0)
(0.1902479 5.8075595e-13 0)
(0.1902479 2.8672106e-13 0)
(0.1902479 -8.6539474e-14 0)
(0.1902479 -3.1785948e-13 0)
(0.1902479 -2.5007747e-13 0)
(0.1902479 -7.2014392e-14 0)
(0.1902479 2.5595487e-13 0)
(0.1902479 4.4386425e-13 0)
(0.1902479 5.06061e-13 0)
(0.1902479 3.3229275e-13 0)
(0.1902479 8.9279676e-14 0)
(0.1902479 -2.5512961e-13 0)
(0.1902479 -4.8393166e-13 0)
(0.1902479 -5.5360752e-13 0)
(0.1902479 -4.4334039e-13 0)
(0.1902479 -1.8535148e-13 0)
(0.1902479 1.5591811e-13 0)
(0.1902479 3.5958014e-13 0)
(0.1902479 3.7383374e-13 0)
(0.1902479 2.1996593e-13 0)
(0.1902479 -1.3153749e-14 0)
(0.1902479 -3.0748836e-13 0)
(0.1902479 -5.4424761e-13 0)
(0.1902479 -6.1966297e-13 0)
(0.1902479 -5.3575276e-13 0)
(0.1902479 -2.553015e-13 0)
(0.1902479 1.4096953e-13 0)
(0.1902479 3.9106098e-13 0)
(0.1902479 3.7679144e-13 0)
(0.1902479 1.8742347e-13 0)
(0.1902479 -1.9282897e-13 0)
(0.1902479 -4.4119707e-13 0)
(0.1902479 -4.7582194e-13 0)
(0.1902479 -2.2251546e-13 0)
(0.1902479 1.8836859e-13 0)
(0.1902479 4.680792e-13 0)
(0.1902479 3.6879479e-13 0)
(0.1902479 5.1369969e-14 0)
(0.1902479 -3.1904643e-13 0)
(0.1902479 -3.6454178e-13 0)
(0.1902479 -1.0882681e-13 0)
(0.1902479 2.1332183e-13 0)
(0.1902479 4.2977552e-13 0)
(0.1902479 4.9646688e-13 0)
(0.1902479 4.7615546e-13 0)
(0.1902479 5.2089371e-13 0)
(0.1902479 6.1513377e-13 0)
(0.1902479 6.8928066e-13 0)
(0.1902479 6.6744159e-13 0)
(0.1902479 7.1443733e-13 0)
(0.1902479 9.4753069e-13 0)
(0.1902479 1.0822732e-12 0)
(0.1902479 5.7885703e-13 0)
(0.1902479 6.4617028e-15 0)
(0.59346672 0.21467329 0)
(0.54593347 0.075998397 0)
(0.39702192 0.039312289 0)
(0.34953973 0.019720552 0)
(0.30792187 0.010726733 0)
(0.28963523 0.0061583768 0)
(0.27651264 0.0034761856 0)
(0.26994405 0.0020291062 0)
(0.26565503 0.0011409911 0)
(0.26342423 0.00065140659 0)
(0.26206335 0.00035633243 0)
(0.26136077 0.00019487262 0)
(0.26095907 0.00010129352 0)
(0.26076048 5.1591082e-05 0)
(0.260656 2.4316012e-05 0)
(0.26060945 1.0643974e-05 0)
(0.26058866 3.760666e-06 0)
(0.26058217 7.1175042e-07 0)
(0.26058122 -5.4246124e-07 0)
(0.26058278 -8.8402017e-07 0)
(0.2605848 -8.6434833e-07 0)
(0.26058673 -7.0535819e-07 0)
(0.26058825 -5.2959696e-07 0)
(0.26058939 -3.7479458e-07 0)
(0.26059018 -2.5549606e-07 0)
(0.26059072 -1.6863061e-07 0)
(0.26059108 -1.0864861e-07 0)
(0.2605913 -6.8422239e-08 0)
(0.26059144 -4.2272149e-08 0)
(0.26059153 -2.5618222e-08 0)
(0.26059159 -1.5250039e-08 0)
(0.26059162 -8.9063582e-09 0)
(0.26059163 -5.100591e-09 0)
(0.26059165 -2.8576143e-09 0)
(0.26059165 -1.562069e-09 0)
(0.26059165 -8.2841668e-10 0)
(0.26059166 -4.2242182e-10 0)
(0.26059166 -2.0367705e-10 0)
(0.26059166 -9.0235001e-11 0)
(0.26059166 -3.4398132e-11 0)
(0.26059166 -8.7576982e-12 0)
(0.26059166 2.1556616e-12 0)
(0.26059166 6.0728018e-12 0)
(0.26059166 6.3737713e-12 0)
(0.26059166 4.761575e-12 0)
(0.26059166 2.7791087e-12 0)
(0.26059166 1.2266672e-12 0)
(0.26059166 7.3988669e-13 0)
(0.26059166 5.9692335e-13 0)
(0.26059166 4.854738e-13 0)
(0.26059166 3.0958978e-13 0)
(0.26059166 1.5294142e-13 0)
(0.26059166 -2.1549691e-13 0)
(0.26059166 -3.2135879e-13 0)
(0.26059166 -3.4195748e-13 0)
(0.26059166 -1.0699801e-13 0)
(0.26059166 2.0723498e-13 0)
(0.26059166 7.1229092e-13 0)
(0.26059166 7.3614091e-13 0)
(0.26059166 8.3329694e-13 0)
(0.26059166 6.6271083e-13 0)
(0.26059166 6.1451724e-13 0)
(0.26059166 6.0535548e-13 0)
(0.26059166 4.9077134e-13 0)
(0.26059166 4.844119e-13 0)
(0.26059166 2.9372336e-13 0)
(0.26059166 3.2925424e-13 0)
(0.26059166 1.2794583e-13 0)
(0.26059166 1.5112062e-13 0)
(0.26059166 1.4509015e-13 0)
(0.26059166 2.41949e-13 0)
(0.26059166 3.3498034e-13 0)
(0.26059166 3.3316294e-13 0)
(0.26059166 3.4948802e-13 0)
(0.26059166 2.9159701e-13 0)
(0.26059166 3.1902127e-13 0)
(0.26059166 2.5869325e-13 0)
(0.26059166 3.4025315e-13 0)
(0.26059166 2.7593128e-13 0)
(0.26059166 3.7160508e-13 0)
(0.26059166 2.7309782e-13 0)
(0.26059166 3.6647543e-13 0)
(0.26059166 2.5080499e-13 0)
(0.26059166 3.5530124e-13 0)
(0.26059166 2.389072e-13 0)
(0.26059166 3.568136e-13 0)
(0.26059166 2.4686594e-13 0)
(0.26059166 3.8247746e-13 0)
(0.26059166 2.9042627e-13 0)
(0.26059166 4.3846419e-13 0)
(0.26059166 3.602555e-13 0)
(0.26059166 4.9710498e-13 0)
(0.26059166 4.2332777e-13 0)
(0.26059166 5.5604776e-13 0)
(0.26059166 4.9928224e-13 0)
(0.26059166 6.0964372e-13 0)