<VTKFile type="UnstructuredGrid" version="1.0">
<UnstructuredGrid>
<Piece NumberOfPoints="25" NumberOfCells="0">
<Points>
<DataArray type="Float32" NumberOfComponents="3" format="ascii">
0 0 0
0.05 0 0
0.1 0 0
0.15 0 0
0.2 0 0
0 0.05 0
0.05 0.05 0
0.1 0.05 0
0.15 0.05 0
0.2 0.05 0
0 0.1 0
0.05 0.1 0
0.1 0.1 0
0.15 0.1 0
0.2 0.1 0
0 0.15 0
0.05 0.15 0
0.1 0.15 0
0.15 0.15 0
0.2 0.15 0
0 0.2 0
0.05 0.2 0
0.1 0.2 0
0.15 0.2 0
0.2 0.2 0
</DataArray>
</Points>
<PointData>
<DataArray type="UInt8" Name="Flags" NumberOfComponents="1" format="ascii">
6
6
6
6
6
8
0
0
0
8
8
0
0
0
8
8
0
0
0
8
6
6
6
6
6
</DataArray>
</PointData>
<Cells>
<DataArray type="Int64" Name="connectivity" format="ascii">
</DataArray>
<DataArray type="Int64" Name="offsets" format="ascii" RangeMin="1e+299" RangeMax="-1e+299">
</DataArray>
</Cells>
</Piece>
</UnstructuredGrid>
</VTKFile>
