<VTKFile type="UnstructuredGrid" version="1.0">
<UnstructuredGrid>
<Piece NumberOfPoints="20" NumberOfCells="0">
<Points>
<DataArray type="Float32" NumberOfComponents="3" format="ascii">
0 0 0
0.2 0 0
0.4 0 0
0.6 0 0
0.8 0 0
0 0.2 0
0.2 0.2 0
0.4 0.2 0
0.6 0.2 0
0.8 0.2 0
0 0.4 0
0.2 0.4 0
0.4 0.4 0
0.6 0.4 0
0.8 0.4 0
0 0.6 0
0.2 0.6 0
0.4 0.6 0
0.6 0.6 0
0.8 0.6 0
</DataArray>
</Points>
<PointData>
<DataArray type="UInt8" Name="Flags" NumberOfComponents="1" format="ascii">
3
3
3
3
3
1
1
1
1
1
1
1
1
1
1
1
1
1
1
1
</DataArray>
</PointData>
<Cells>
<DataArray type="Int64" Name="connectivity" format="ascii">
</DataArray>
<DataArray type="Int64" Name="offsets" format="ascii" RangeMin="1e+299" RangeMax="-1e+299">
</DataArray>
</Cells>
</Piece>
</UnstructuredGrid>
</VTKFile>
