/*--------------------------------*- C++ -*----------------------------------*\
| =========                 |                                                 |
| \\      /  F ield         | OpenFOAM: The Open Source CFD Toolbox           |
|  \\    /   O peration     | Version:  2206                                  |
|   \\  /    A nd           | Website:  www.openfoam.com                      |
|    \\/     M anipulation  |                                                 |
\*---------------------------------------------------------------------------*/
FoamFile
{
    version     2.0;
    format      ascii;
    arch        "LSB;label=32;scalar=64";
    class       surfaceScalarField;
    location    "20";
    object      phi;
}
// * * * * * * * * * * * * * * * * * * * * * * * * * * * * * * * * * * * * * //

dimensions      [0 3 -1 0 0 0 0];

oriented        oriented;

internalField   nonuniform List<scalar> 
29650
(
6.0867648e-05
0.00020579915
3.2718169e-05
2.8149491e-05
2.4599021e-05
8.1191729e-06
2.0417849e-05
4.181203e-06
1.8552178e-05
1.8657008e-06
1.73737e-05
1.1785034e-06
1.6781662e-05
5.9205655e-07
1.6412315e-05
3.6935417e-07
1.6220821e-05
1.9149277e-07
1.6106686e-05
1.1412809e-07
1.6048258e-05
5.8419321e-08
1.6015474e-05
3.2776195e-08
1.5999542e-05
1.592646e-08
1.5991376e-05
8.1619803e-09
1.5987889e-05
3.4851551e-09
1.598644e-05
1.4479713e-09
1.598609e-05
3.4983078e-10
1.5986138e-05
-4.7421257e-11
1.5986349e-05
-2.1052824e-10
1.5986569e-05
-2.1936196e-10
1.5986762e-05
-1.9185131e-10
1.5986908e-05
-1.4586188e-10
1.5987014e-05
-1.0607379e-10
1.5987087e-05
-7.2864066e-11
1.5987136e-05
-4.8877653e-11
1.5987167e-05
-3.1696738e-11
1.5987187e-05
-2.0184173e-11
1.59872e-05
-1.2537062e-11
1.5987208e-05
-7.6613371e-12
1.5987212e-05
-4.5831681e-12
1.5987215e-05
-2.693997e-12
1.5987216e-05
-1.5477836e-12
1.5987217e-05
-8.6949699e-13
1.5987218e-05
-4.7566123e-13
1.5987218e-05
-2.5282313e-13
1.5987218e-05
-1.293495e-13
1.5987218e-05
-6.2096791e-14
1.5987218e-05
-2.6949383e-14
1.5987218e-05
-9.2428431e-15
1.5987218e-05
-2.0267036e-15
1.5987218e-05
6.1182307e-16
1.5987218e-05
1.0181325e-15
1.5987218e-05
1.7485793e-15
1.5987218e-05
8.3975686e-16
1.5987218e-05
2.0759429e-16
1.5987218e-05
-8.1346899e-16
1.5987218e-05
-2.9106291e-17
1.5987218e-05
6.0469203e-16
1.5987218e-05
2.6958307e-15
1.5987218e-05
2.68667e-15
1.5987218e-05
4.2566253e-15
1.5987218e-05
3.6959358e-15
1.5987218e-05
4.227776e-15
1.5987218e-05
3.2485373e-15
1.5987218e-05
3.0887536e-15
1.5987218e-05
2.298596e-15
1.5987218e-05
2.158325e-15
1.5987218e-05
1.016362e-15
1.5987218e-05
2.1427895e-15
1.5987218e-05
9.8505647e-16
1.5987218e-05
1.8058323e-15
1.5987218e-05
1.0473815e-15
1.5987218e-05
1.5583234e-15
1.5987218e-05
1.0969199e-15
1.5987218e-05
1.2907364e-15
1.5987218e-05
9.9665519e-16
1.5987218e-05
9.8699776e-16
1.5987218e-05
9.45034e-16
1.5987218e-05
1.3734865e-15
1.5987218e-05
1.6494376e-15
1.5987218e-05
2.3639143e-15
1.5987218e-05
2.1714284e-15
1.5987218e-05
1.7589697e-15
1.5987218e-05
7.6072583e-16
1.5987218e-05
-4.9761872e-16
1.5987218e-05
-1.3702111e-15
1.5987218e-05
-1.9951639e-15
1.5987218e-05
-2.054451e-15
1.5987218e-05
-2.2325577e-15
1.5987218e-05
-2.0122398e-15
1.5987218e-05
-2.2382902e-15
1.5987218e-05
-2.0295603e-15
1.5987218e-05
-2.3241364e-15
1.5987218e-05
-2.0606735e-15
1.5987218e-05
-2.3414525e-15
1.5987218e-05
-2.0347557e-15
1.5987218e-05
-2.331893e-15
1.5987218e-05
-2.0073626e-15
1.5987218e-05
-2.2974872e-15
1.5987218e-05
-1.9658806e-15
1.5987218e-05
-2.26548e-15
1.5987218e-05
-1.9653443e-15
1.5987218e-05
-2.2322091e-15
1.5987218e-05
-1.8923927e-15
1.5987218e-05
-2.1318637e-15
1.5987218e-05
-1.8956089e-15
1.5987218e-05
-2.1554923e-15
1.5987218e-05
-1.784969e-15
1.5987218e-05
-1.8955749e-15
1.5987218e-05
-1.8107458e-15
1.5987218e-05
-2.4438594e-15
1.5987218e-05
-2.7841289e-15
1.5987218e-05
-2.8554741e-15
1.5987218e-05
-1.896524e-15
1.5987218e-05
-5.29687e-16
1.5987218e-05
8.5526098e-16
1.5987218e-05
1.1677747e-15
1.5987218e-05
1.0187228e-15
1.5987218e-05
5.5449579e-16
1.5987218e-05
6.8670769e-16
1.5987218e-05
1.2232052e-15
1.5987218e-05
1.8004581e-15
1.5987218e-05
1.718305e-15
1.5987218e-05
1.0981053e-15
1.5987218e-05
9.3259396e-17
1.5987218e-05
-8.1092393e-16
1.5987218e-05
-1.6161665e-15
1.5987218e-05
-2.3670882e-15
1.5987218e-05
-2.6620871e-15
1.5987218e-05
-2.6210743e-15
1.5987218e-05
-1.8338204e-15
1.5987218e-05
-6.738835e-16
1.5987218e-05
5.5257332e-16
1.5987218e-05
1.3923929e-15
1.5987218e-05
1.8471307e-15
1.5987218e-05
2.0253339e-15
1.5987218e-05
2.0458718e-15
1.5987218e-05
2.0443904e-15
1.5987218e-05
2.0379318e-15
1.5987218e-05
2.0505087e-15
1.5987218e-05
2.0575808e-15
1.5987218e-05
2.0626472e-15
1.5987218e-05
2.0538683e-15
1.5987218e-05
2.0483611e-15
1.5987218e-05
2.0326463e-15
1.5987218e-05
2.0338746e-15
1.5987218e-05
2.0206152e-15
1.5987218e-05
2.0339587e-15
1.5987218e-05
2.0199565e-15
1.5987218e-05
2.0340614e-15
1.5987218e-05
2.0140074e-15
1.5987218e-05
2.0380514e-15
1.5987218e-05
2.0205575e-15
1.5987218e-05
2.0319268e-15
1.5987218e-05
2.0044383e-15
1.5987218e-05
2.0501543e-15
1.5987218e-05
2.034942e-15
1.5987218e-05
1.9810582e-15
1.5987218e-05
1.8634185e-15
1.5987218e-05
1.9929879e-15
1.5987218e-05
2.3098391e-15
1.5987218e-05
2.7910762e-15
1.5987218e-05
2.8504468e-15
1.5987218e-05
2.4917818e-15
1.5987218e-05
1.3866324e-15
1.5987218e-05
1.0053319e-16
1.5987218e-05
-9.4823764e-16
1.5987218e-05
-1.657367e-15
1.5987218e-05
-1.8999047e-15
1.5987218e-05
-1.9835076e-15
1.5987218e-05
-1.9084395e-15
1.5987218e-05
-1.9484484e-15
1.5987218e-05
-1.9560797e-15
1.5987218e-05
-2.0341336e-15
1.5987218e-05
-1.9956469e-15
1.5987218e-05
-2.0681649e-15
1.5987218e-05
-2.0006254e-15
1.5987218e-05
-2.0584803e-15
1.5987218e-05
-1.9953837e-15
1.5987218e-05
-2.0556039e-15
1.5987218e-05
-1.9939104e-15
1.5987218e-05
-2.0588062e-15
1.5987218e-05
-1.9974426e-15
1.5987218e-05
-2.0621075e-15
1.5987218e-05
-2.0026286e-15
1.5987218e-05
-2.0648707e-15
1.5987218e-05
-2.0167751e-15
1.5987218e-05
-2.0734401e-15
1.5987218e-05
-2.0324683e-15
1.5987218e-05
-2.0992572e-15
1.5987218e-05
-2.0734737e-15
1.5987218e-05
-2.1576396e-15
1.5987218e-05
-2.1141732e-15
1.5987218e-05
-2.1817133e-15
1.5987218e-05
-2.1415346e-15
1.5987218e-05
-2.2320583e-15
1.5987218e-05
-2.2402971e-15
1.5987218e-05
-2.304939e-15
1.5987218e-05
-2.1918103e-15
1.5987218e-05
-2.0692804e-15
1.5987218e-05
-2.0714893e-15
1.5987218e-05
-2.3428299e-15
1.5987218e-05
-2.7727753e-15
1.5987218e-05
-3.013852e-15
1.5987218e-05
-2.7842008e-15
1.5987218e-05
-1.9050591e-15
1.5987218e-05
-6.8759752e-16
1.5987218e-05
5.7856157e-16
1.5987218e-05
1.3186276e-15
1.5987218e-05
1.8883182e-15
1.5987218e-05
2.054318e-15
1.5987218e-05
2.2134962e-15
1.5987218e-05
2.1649886e-15
1.5987218e-05
2.2453924e-15
1.5987218e-05
2.1766629e-15
1.5987218e-05
2.2351661e-15
1.5987218e-05
2.1832022e-15
1.5987218e-05
2.2083417e-15
1.5987218e-05
2.2026882e-15
1.5987218e-05
2.2585413e-15
1.5987218e-05
2.310058e-15
1.5987218e-05
2.2581956e-15
1.5987218e-05
2.0949484e-15
1.5987218e-05
1.9380694e-15
1.5987218e-05
2.0596211e-15
1.5987218e-05
2.3743594e-15
1.5987218e-05
2.7718676e-15
1.5987218e-05
2.732246e-15
1.5987218e-05
2.1832274e-15
1.5987218e-05
1.0101269e-15
1.5987218e-05
-3.2081115e-16
1.5987218e-05
-1.2315983e-15
1.5987218e-05
-1.6977986e-15
1.5987218e-05
-1.7984994e-15
1.5987218e-05
-1.9439903e-15
1.5987218e-05
-2.2922981e-15
1.5987218e-05
-2.5929684e-15
1.5987218e-05
-2.7203747e-15
1.5987218e-05
-2.2813168e-15
1.5987218e-05
-1.4590441e-15
1.5987218e-05
-1.4368515e-16
1.5987218e-05
1.1883078e-15
1.5987218e-05
2.2342861e-15
1.5987218e-05
2.7651419e-15
1.5987218e-05
2.3984279e-15
1.5987218e-05
1.4547593e-15
1.5987218e-05
2.1400968e-16
1.5987218e-05
-8.0349399e-16
1.5987218e-05
-1.506811e-15
1.5987218e-05
-2.1769531e-15
1.5987218e-05
-2.5765889e-15
1.5987218e-05
-2.7722189e-15
1.5987218e-05
-2.2857852e-15
1.5987218e-05
-1.3380487e-15
1.5987218e-05
-7.2504293e-17
1.5987218e-05
9.6280358e-16
1.5987218e-05
1.6302742e-15
1.5987218e-05
2.0001365e-15
1.5987218e-05
2.0478878e-15
1.5987218e-05
1.9182678e-15
1.5987218e-05
1.7745113e-15
1.5987218e-05
1.8633857e-15
1.5987218e-05
2.2579174e-15
1.5987218e-05
2.6801604e-15
1.5987218e-05
2.7847498e-15
1.5987218e-05
2.3240288e-15
1.5987218e-05
1.2391422e-15
1.5987218e-05
-3.5838299e-17
1.5987218e-05
-1.1020188e-15
1.5987218e-05
-1.6699898e-15
1.5987218e-05
-1.9605872e-15
1.5987218e-05
-1.9876078e-15
1.5987218e-05
-2.0551498e-15
1.5987218e-05
-2.0180442e-15
1.5987218e-05
-1.9514797e-15
1.5987218e-05
-1.810502e-15
1.5987218e-05
-1.9180136e-15
1.5987218e-05
-2.1989294e-15
1.5987218e-05
-2.5970479e-15
1.5987218e-05
-2.7129719e-15
1.5987218e-05
-2.4357528e-15
1.5987218e-05
-1.6028352e-15
1.5987218e-05
-2.3138949e-16
1.5987218e-05
1.1384777e-15
1.5987218e-05
2.2367505e-15
1.5987218e-05
2.7001001e-15
1.5987218e-05
2.3376491e-15
1.5987218e-05
1.3621641e-15
1.5987218e-05
2.7105968e-17
1.5987218e-05
-1.0380618e-15
1.5987218e-05
-1.6828283e-15
1.5987218e-05
-2.0102757e-15
1.5987218e-05
-2.0372441e-15
1.5987218e-05
-2.0137477e-15
1.5987218e-05
-1.9493238e-15
1.5987218e-05
-1.9596399e-15
1.5987218e-05
-1.9748323e-15
1.5987218e-05
-2.0549895e-15
1.5987218e-05
-2.0567972e-15
1.5987218e-05
-2.0847527e-15
1.5987218e-05
-2.0002878e-15
1.5987218e-05
-1.9982081e-15
1.5987218e-05
-2.0337923e-15
1.5987218e-05
-2.140594e-15
1.5987218e-05
-1.9518278e-15
1.5987218e-05
-1.6592334e-15
1.5987218e-05
-1.840579e-15
1.5987218e-05
-2.7387398e-15
1.5987218e-05
-2.935175e-15
-1.4417688e-15
0.00014027132
0.00033219463
9.2549243e-05
7.5871577e-05
7.0338072e-05
3.0330369e-05
5.9620314e-05
1.4898994e-05
5.4019642e-05
7.466404e-06
5.0795344e-05
4.4028296e-06
4.901105e-05
2.3763688e-06
4.7964746e-05
1.4156671e-06
4.7384385e-05
7.7185172e-07
4.7052234e-05
4.4627161e-07
4.6872682e-05
2.3796195e-07
4.677453e-05
1.309199e-07
4.6724187e-05
6.6264409e-08
4.6698685e-05
3.3659925e-08
4.6686924e-05
1.5243785e-08
4.6681892e-05
6.4792274e-09
4.6680252e-05
1.9906917e-09
4.6680058e-05
1.4688775e-10
4.6680445e-05
-5.966418e-10
4.6680961e-05
-7.3533663e-10
4.6681443e-05
-6.7280371e-10
4.6681826e-05
-5.2888442e-10
4.668211e-05
-3.8998097e-10
4.6682309e-05
-2.7185082e-10
4.6682444e-05
-1.8368011e-10
4.6682532e-05
-1.2016745e-10
4.6682589e-05
-7.69352e-11
4.6682624e-05
-4.8119143e-11
4.6682646e-05
-2.9558063e-11
4.6682659e-05
-1.7797162e-11
4.6682667e-05
-1.0527003e-11
4.6682672e-05
-6.0977091e-12
4.6682674e-05
-3.4595521e-12
4.6682676e-05
-1.915958e-12
4.6682676e-05
-1.033864e-12
4.6682677e-05
-5.3880789e-13
4.6682677e-05
-2.6813713e-13
4.6682677e-05
-1.2363474e-13
4.6682677e-05
-5.0248759e-14
4.6682677e-05
-1.6215966e-14
4.6682677e-05
-2.2577022e-15
4.6682677e-05
2.9031781e-15
4.6682677e-05
4.7138141e-15
4.6682677e-05
3.5555784e-15
4.6682677e-05
1.4502323e-15
4.6682677e-05
-5.5531991e-16
4.6682677e-05
3.1828947e-16
4.6682677e-05
2.1778439e-15
4.6682677e-05
5.2526299e-15
4.6682677e-05
6.4026726e-15
4.6682677e-05
8.3477546e-15
4.6682677e-05
8.0980723e-15
4.6682677e-05
7.7354598e-15
4.6682677e-05
6.1533603e-15
4.6682677e-05
5.044136e-15
4.6682677e-05
4.115752e-15
4.6682677e-05
3.6378243e-15
4.6682677e-05
2.9530212e-15
4.6682677e-05
3.5270729e-15
4.6682677e-05
2.9485635e-15
4.6682677e-05
3.0829204e-15
4.6682677e-05
2.7502741e-15
4.6682677e-05
2.566513e-15
4.6682677e-05
2.3691964e-15
4.6682677e-05
1.7144837e-15
4.6682677e-05
1.439835e-15
4.6682677e-05
1.1018982e-15
4.6682677e-05
1.3781454e-15
4.6682677e-05
2.1429594e-15
4.6682677e-05
3.6677341e-15
4.6682677e-05
4.3293511e-15
4.6682677e-05
5.1107005e-15
4.6682677e-05
3.4098053e-15
4.6682677e-05
2.1771372e-15
4.6682677e-05
-1.2484545e-15
4.6682677e-05
-2.2846956e-15
4.6682677e-05
-4.2642892e-15
4.6682677e-05
-3.7556731e-15
4.6682677e-05
-4.671854e-15
4.6682677e-05
-3.6954086e-15
4.6682677e-05
-4.6498146e-15
4.6682677e-05
-3.7926503e-15
4.6682677e-05
-4.811656e-15
4.6682677e-05
-3.9074062e-15
4.6682677e-05
-4.8325033e-15
4.6682677e-05
-3.8988302e-15
4.6682677e-05
-4.7948441e-15
4.6682677e-05
-3.8833856e-15
4.6682677e-05
-4.711156e-15
4.6682677e-05
-3.83529e-15
4.6682677e-05
-4.6350309e-15
4.6682677e-05
-3.8711342e-15
4.6682677e-05
-4.5763611e-15
4.6682677e-05
-3.762823e-15
4.6682677e-05
-4.3536169e-15
4.6682677e-05
-3.7663583e-15
4.6682677e-05
-4.4171495e-15
4.6682677e-05
-3.6317464e-15
4.6682677e-05
-3.9238378e-15
4.6682677e-05
-3.5347163e-15
4.6682677e-05
-4.948677e-15
4.6682677e-05
-5.5741651e-15
4.6682677e-05
-5.9415168e-15
4.6682677e-05
-4.1305917e-15
4.6682677e-05
-1.2421213e-15
4.6682677e-05
1.6678502e-15
4.6682677e-05
2.4315599e-15
4.6682677e-05
2.0768891e-15
4.6682677e-05
8.8278489e-16
4.6682677e-05
1.0188837e-15
4.6682677e-05
2.2040225e-15
4.6682677e-05
3.5091493e-15
4.6682677e-05
3.5069867e-15
4.6682677e-05
2.3438842e-15
4.6682677e-05
1.7357159e-16
4.6682677e-05
-1.5349554e-15
4.6682677e-05
-3.3110084e-15
4.6682677e-05
-4.6926135e-15
4.6682677e-05
-5.4923863e-15
4.6682677e-05
-5.3970075e-15
4.6682677e-05
-3.8461555e-15
4.6682677e-05
-1.5242875e-15
4.6682677e-05
1.0973576e-15
4.6682677e-05
2.7855234e-15
4.6682677e-05
3.7548129e-15
4.6682677e-05
4.0649883e-15
4.6682677e-05
4.1190216e-15
4.6682677e-05
4.0896815e-15
4.6682677e-05
4.1013821e-15
4.6682677e-05
4.1129416e-15
4.6682677e-05
4.1467982e-15
4.6682677e-05
4.1392296e-15
4.6682677e-05
4.1385837e-15
4.6682677e-05
4.1073337e-15
4.6682677e-05
4.096836e-15
4.6682677e-05
4.0767629e-15
4.6682677e-05
4.0732407e-15
4.6682677e-05
4.0752016e-15
4.6682677e-05
4.0732771e-15
4.6682677e-05
4.0725715e-15
4.6682677e-05
4.0587806e-15
4.6682677e-05
4.0751596e-15
4.6682677e-05
4.074056e-15
4.6682677e-05
4.0647363e-15
4.6682677e-05
4.031231e-15
4.6682677e-05
4.0920719e-15
4.6682677e-05
4.1022971e-15
4.6682677e-05
3.9853208e-15
4.6682677e-05
3.7474755e-15
4.6682677e-05
3.9024479e-15
4.6682677e-05
4.623932e-15
4.6682677e-05
5.5270312e-15
4.6682677e-05
5.8361821e-15
4.6682677e-05
5.1283263e-15
4.6682677e-05
2.8939134e-15
4.6682677e-05
3.2098931e-16
4.6682677e-05
-1.9716909e-15
4.6682677e-05
-3.3816599e-15
4.6682677e-05
-3.9025424e-15
4.6682677e-05
-4.0281669e-15
4.6682677e-05
-3.8404573e-15
4.6682677e-05
-3.887022e-15
4.6682677e-05
-3.9131918e-15
4.6682677e-05
-4.0336127e-15
4.6682677e-05
-4.0437245e-15
4.6682677e-05
-4.1384159e-15
4.6682677e-05
-4.0526855e-15
4.6682677e-05
-4.119919e-15
4.6682677e-05
-4.0420275e-15
4.6682677e-05
-4.1062643e-15
4.6682677e-05
-4.0343404e-15
4.6682677e-05
-4.1047688e-15
4.6682677e-05
-4.0377607e-15
4.6682677e-05
-4.1072592e-15
4.6682677e-05
-4.0396429e-15
4.6682677e-05
-4.1096999e-15
4.6682677e-05
-4.0605068e-15
4.6682677e-05
-4.1275147e-15
4.6682677e-05
-4.0765283e-15
4.6682677e-05
-4.1780107e-15
4.6682677e-05
-4.1419769e-15
4.6682677e-05
-4.2842526e-15
4.6682677e-05
-4.2180437e-15
4.6682677e-05
-4.3108855e-15
4.6682677e-05
-4.2673569e-15
4.6682677e-05
-4.3787888e-15
4.6682677e-05
-4.4472394e-15
4.6682677e-05
-4.5221896e-15
4.6682677e-05
-4.3312867e-15
4.6682677e-05
-4.0449104e-15
4.6682677e-05
-4.0062277e-15
4.6682677e-05
-4.4922136e-15
4.6682677e-05
-5.4548657e-15
4.6682677e-05
-5.9703092e-15
4.6682677e-05
-5.5837593e-15
4.6682677e-05
-3.9017964e-15
4.6682677e-05
-1.3033701e-15
4.6682677e-05
1.1911579e-15
4.6682677e-05
2.8042692e-15
4.6682677e-05
3.8522707e-15
4.6682677e-05
4.169535e-15
4.6682677e-05
4.3840023e-15
4.6682677e-05
4.315281e-15
4.6682677e-05
4.4130831e-15
4.6682677e-05
4.3107358e-15
4.6682677e-05
4.3932289e-15
4.6682677e-05
4.3133902e-15
4.6682677e-05
4.3516353e-15
4.6682677e-05
4.3357813e-15
4.6682677e-05
4.463829e-15
4.6682677e-05
4.5614908e-15
4.6682677e-05
4.5209097e-15
4.6682677e-05
4.1765484e-15
4.6682677e-05
3.8631881e-15
4.6682677e-05
4.0137634e-15
4.6682677e-05
4.7249202e-15
4.6682677e-05
5.5308317e-15
4.6682677e-05
5.5787752e-15
4.6682677e-05
4.487284e-15
4.6682677e-05
2.1405968e-15
4.6682677e-05
-5.9513296e-16
4.6682677e-05
-2.5386325e-15
4.6682677e-05
-3.44964e-15
4.6682677e-05
-3.6051261e-15
4.6682677e-05
-3.8310735e-15
4.6682677e-05
-4.5004298e-15
4.6682677e-05
-5.2562266e-15
4.6682677e-05
-5.5082836e-15
4.6682677e-05
-4.7291538e-15
4.6682677e-05
-3.0878856e-15
4.6682677e-05
-3.8233959e-16
4.6682677e-05
2.2414429e-15
4.6682677e-05
4.5840152e-15
4.6682677e-05
5.6106893e-15
4.6682677e-05
4.9913643e-15
4.6682677e-05
3.0885708e-15
4.6682677e-05
4.6448983e-16
4.6682677e-05
-1.5694241e-15
4.6682677e-05
-3.0611309e-15
4.6682677e-05
-4.2780587e-15
4.6682677e-05
-5.2395204e-15
4.6682677e-05
-5.6097571e-15
4.6682677e-05
-4.7375819e-15
4.6682677e-05
-2.868934e-15
4.6682677e-05
-2.0369141e-16
4.6682677e-05
1.8761628e-15
4.6682677e-05
3.3239164e-15
4.6682677e-05
4.0425336e-15
4.6682677e-05
4.1495464e-15
4.6682677e-05
3.8933881e-15
4.6682677e-05
3.5562903e-15
4.6682677e-05
3.6819462e-15
4.6682677e-05
4.4921169e-15
4.6682677e-05
5.3861233e-15
4.6682677e-05
5.6680688e-15
4.6682677e-05
4.8121662e-15
4.6682677e-05
2.610463e-15
4.6682677e-05
-3.8550362e-18
4.6682677e-05
-2.2404909e-15
4.6682677e-05
-3.4344686e-15
4.6682677e-05
-3.9476566e-15
4.6682677e-05
-4.0313422e-15
4.6682677e-05
-4.1090198e-15
4.6682677e-05
-4.1074779e-15
4.6682677e-05
-3.9314494e-15
4.6682677e-05
-3.6779147e-15
4.6682677e-05
-3.7906033e-15
4.6682677e-05
-4.4056119e-15
4.6682677e-05
-5.202225e-15
4.6682677e-05
-5.5382947e-15
4.6682677e-05
-5.0018523e-15
4.6682677e-05
-3.3552181e-15
4.6682677e-05
-6.1076721e-16
4.6682677e-05
2.1797682e-15
4.6682677e-05
4.5398305e-15
4.6682677e-05
5.5072767e-15
4.6682677e-05
4.8818891e-15
4.6682677e-05
2.9106965e-15
4.6682677e-05
1.0861404e-16
4.6682677e-05
-2.0283294e-15
4.6682677e-05
-3.4449488e-15
4.6682677e-05
-4.0389941e-15
4.6682677e-05
-4.1276153e-15
4.6682677e-05
-4.03494e-15
4.6682677e-05
-3.9259776e-15
4.6682677e-05
-3.9478504e-15
4.6682677e-05
-4.011568e-15
4.6682677e-05
-4.1229251e-15
4.6682677e-05
-4.1796753e-15
4.6682677e-05
-4.187526e-15
4.6682677e-05
-4.0604024e-15
4.6682677e-05
-3.990024e-15
4.6682677e-05
-4.0948081e-15
4.6682677e-05
-4.2943645e-15
4.6682677e-05
-4.0016865e-15
4.6682677e-05
-3.341518e-15
4.6682677e-05
-3.5692709e-15
4.6682677e-05
-5.2873788e-15
4.6682677e-05
-6.1471984e-15
-3.3418965e-15
0.00019469214
0.00040416929
0.00014360962
0.00012695411
0.00011230147
6.1638512e-05
9.6619294e-05
3.0581171e-05
8.7762221e-05
1.6323474e-05
8.2755406e-05
9.4096428e-06
7.9871701e-05
5.2600758e-06
7.8206034e-05
3.0813393e-06
7.7256668e-05
1.7212229e-06
7.6718195e-05
9.8475027e-07
7.6420463e-05
5.3569762e-07
7.6258218e-05
2.9316646e-07
7.6172993e-05
1.5149039e-07
7.61296e-05
7.7053159e-08
7.6108851e-05
3.5992256e-08
7.6099695e-05
1.5634386e-08
7.6096324e-05
5.3611173e-09
7.6095587e-05
8.8331331e-10
7.6095937e-05
-9.4612602e-10
7.6096611e-05
-1.4101142e-09
7.609729e-05
-1.3522037e-09
7.6097854e-05
-1.092365e-09
7.609828e-05
-8.160843e-10
7.6098584e-05
-5.7530009e-10
7.6098791e-05
-3.9126776e-10
7.6098929e-05
-2.5767766e-10
7.6099018e-05
-1.6575522e-10
7.6099074e-05
-1.0420718e-10
7.6099108e-05
-6.4286113e-11
7.609913e-05
-3.8895481e-11
7.6099142e-05
-2.3113809e-11
7.609915e-05
-1.3469288e-11
7.6099154e-05
-7.6928451e-12
7.6099156e-05
-4.2954658e-12
7.6099157e-05
-2.3385067e-12
7.6099158e-05
-1.2340944e-12
7.6099158e-05
-6.2434839e-13
7.6099159e-05
-2.9737594e-13
7.6099159e-05
-1.28052e-13
7.6099159e-05
-4.6792254e-14
7.6099159e-05
-1.0486205e-14
7.6099159e-05
3.6136702e-15
7.6099159e-05
9.6294418e-15
7.6099159e-05
8.8012734e-15
7.6099159e-05
6.8003302e-15
7.6099159e-05
3.8344685e-15
7.6099159e-05
4.1827192e-15
7.6099159e-05
4.4486321e-15
7.6099159e-05
7.3134689e-15
7.6099159e-05
6.867839e-15
7.6099159e-05
9.5229545e-15
7.6099159e-05
8.6869386e-15
7.6099159e-05
9.5060684e-15
7.6099159e-05
7.6161766e-15
7.6099159e-05
6.8471262e-15
7.6099159e-05
5.1271064e-15
7.6099159e-05
4.3841651e-15
7.6099159e-05
2.3971463e-15
7.6099159e-05
4.2516363e-15
7.6099159e-05
2.3216525e-15
7.6099159e-05
3.5325398e-15
7.6099159e-05
2.2979023e-15
7.6099159e-05
3.0602735e-15
7.6099159e-05
2.402567e-15
7.6099159e-05
2.5319205e-15
7.6099159e-05
2.0472426e-15
7.6099159e-05
1.9051195e-15
7.6099159e-05
1.991651e-15
7.6099159e-05
2.8917371e-15
7.6099159e-05
3.8038129e-15
7.6099159e-05
4.9042595e-15
7.6099159e-05
4.8017453e-15
7.6099159e-05
3.3285996e-15
7.6099159e-05
1.4578237e-15
7.6099159e-05
-1.5433467e-15
7.6099159e-05
-3.0064138e-15
7.6099159e-05
-4.6926514e-15
7.6099159e-05
-4.5260678e-15
7.6099159e-05
-5.1841552e-15
7.6099159e-05
-4.4126437e-15
7.6099159e-05
-5.1231925e-15
7.6099159e-05
-4.4245765e-15
7.6099159e-05
-5.2835271e-15
7.6099159e-05
-4.5281322e-15
7.6099159e-05
-5.3546159e-15
7.6099159e-05
-4.5400535e-15
7.6099159e-05
-5.3705176e-15
7.6099159e-05
-4.540062e-15
7.6099159e-05
-5.3290562e-15
7.6099159e-05
-4.5085806e-15
7.6099159e-05
-5.2870528e-15
7.6099159e-05
-4.5312601e-15
7.6099159e-05
-5.199566e-15
7.6099159e-05
-4.3629732e-15
7.6099159e-05
-4.952033e-15
7.6099159e-05
-4.3383816e-15
7.6099159e-05
-4.9446668e-15
7.6099159e-05
-4.0875067e-15
7.6099159e-05
-4.4558135e-15
7.6099159e-05
-4.2143225e-15
7.6099159e-05
-5.614156e-15
7.6099159e-05
-6.0571529e-15
7.6099159e-05
-5.9807673e-15
7.6099159e-05
-3.838999e-15
7.6099159e-05
-1.090578e-15
7.6099159e-05
1.626069e-15
7.6099159e-05
2.2243111e-15
7.6099159e-05
2.0921584e-15
7.6099159e-05
1.3101092e-15
7.6099159e-05
1.7222423e-15
7.6099159e-05
2.7897847e-15
7.6099159e-05
3.7652149e-15
7.6099159e-05
3.3341466e-15
7.6099159e-05
1.9270845e-15
7.6099159e-05
-2.8967181e-16
7.6099159e-05
-2.1399597e-15
7.6099159e-05
-3.9607672e-15
7.6099159e-05
-5.4371311e-15
7.6099159e-05
-5.9563389e-15
7.6099159e-05
-5.5980879e-15
7.6099159e-05
-3.6352115e-15
7.6099159e-05
-1.1204671e-15
7.6099159e-05
1.5387603e-15
7.6099159e-05
3.3339219e-15
7.6099159e-05
4.3514399e-15
7.6099159e-05
4.7291897e-15
7.6099159e-05
4.7663748e-15
7.6099159e-05
4.7246428e-15
7.6099159e-05
4.6829511e-15
7.6099159e-05
4.6776651e-15
7.6099159e-05
4.6815691e-15
7.6099159e-05
4.6773861e-15
7.6099159e-05
4.6568056e-15
7.6099159e-05
4.6365899e-15
7.6099159e-05
4.6090909e-15
7.6099159e-05
4.6020418e-15
7.6099159e-05
4.5819865e-15
7.6099159e-05
4.5970271e-15
7.6099159e-05
4.5743112e-15
7.6099159e-05
4.5877569e-15
7.6099159e-05
4.5540355e-15
7.6099159e-05
4.5861634e-15
7.6099159e-05
4.5530243e-15
7.6099159e-05
4.5510468e-15
7.6099159e-05
4.4957534e-15
7.6099159e-05
4.5712467e-15
7.6099159e-05
4.5398263e-15
7.6099159e-05
4.4329924e-15
7.6099159e-05
4.2502619e-15
7.6099159e-05
4.5641328e-15
7.6099159e-05
5.2882018e-15
7.6099159e-05
6.1401555e-15
7.6099159e-05
6.0580567e-15
7.6099159e-05
5.0017038e-15
7.6099159e-05
2.537052e-15
7.6099159e-05
-1.3240817e-16
7.6099159e-05
-2.3662954e-15
7.6099159e-05
-3.8565228e-15
7.6099159e-05
-4.3915245e-15
7.6099159e-05
-4.560541e-15
7.6099159e-05
-4.3698381e-15
7.6099159e-05
-4.4189107e-15
7.6099159e-05
-4.415513e-15
7.6099159e-05
-4.5493947e-15
7.6099159e-05
-4.4999817e-15
7.6099159e-05
-4.6421723e-15
7.6099159e-05
-4.5159532e-15
7.6099159e-05
-4.6224197e-15
7.6099159e-05
-4.5040231e-15
7.6099159e-05
-4.6072847e-15
7.6099159e-05
-4.4914826e-15
7.6099159e-05
-4.6040552e-15
7.6099159e-05
-4.4944289e-15
7.6099159e-05
-4.6069093e-15
7.6099159e-05
-4.5020551e-15
7.6099159e-05
-4.6141344e-15
7.6099159e-05
-4.5300769e-15
7.6099159e-05
-4.628222e-15
7.6099159e-05
-4.5514235e-15
7.6099159e-05
-4.6799624e-15
7.6099159e-05
-4.6320236e-15
7.6099159e-05
-4.8039097e-15
7.6099159e-05
-4.7202275e-15
7.6099159e-05
-4.8603106e-15
7.6099159e-05
-4.7975966e-15
7.6099159e-05
-4.9680712e-15
7.6099159e-05
-4.9956119e-15
7.6099159e-05
-5.0862171e-15
7.6099159e-05
-4.84429e-15
7.6099159e-05
-4.6026703e-15
7.6099159e-05
-4.6621385e-15
7.6099159e-05
-5.2144294e-15
7.6099159e-05
-6.0481784e-15
7.6099159e-05
-6.3094412e-15
7.6099159e-05
-5.5087783e-15
7.6099159e-05
-3.4719273e-15
7.6099159e-05
-8.5033941e-16
7.6099159e-05
1.7301423e-15
7.6099159e-05
3.2921891e-15
7.6099159e-05
4.4525935e-15
7.6099159e-05
4.7890719e-15
7.6099159e-05
5.0613485e-15
7.6099159e-05
4.9262038e-15
7.6099159e-05
5.021549e-15
7.6099159e-05
4.8474534e-15
7.6099159e-05
4.9275877e-15
7.6099159e-05
4.8154428e-15
7.6099159e-05
4.8615944e-15
7.6099159e-05
4.8681863e-15
7.6099159e-05
4.9941408e-15
7.6099159e-05
5.0955695e-15
7.6099159e-05
4.9773068e-15
7.6099159e-05
4.6403254e-15
7.6099159e-05
4.3771013e-15
7.6099159e-05
4.6746257e-15
7.6099159e-05
5.3337186e-15
7.6099159e-05
5.9937351e-15
7.6099159e-05
5.661506e-15
7.6099159e-05
4.2125204e-15
7.6099159e-05
1.6580698e-15
7.6099159e-05
-1.112944e-15
7.6099159e-05
-3.0136722e-15
7.6099159e-05
-3.9979341e-15
7.6099159e-05
-4.2680237e-15
7.6099159e-05
-4.622037e-15
7.6099159e-05
-5.3102611e-15
7.6099159e-05
-5.8046835e-15
7.6099159e-05
-5.7805849e-15
7.6099159e-05
-4.5691772e-15
7.6099159e-05
-2.6610033e-15
7.6099159e-05
2.0373615e-16
7.6099159e-05
2.960576e-15
7.6099159e-05
5.1299602e-15
7.6099159e-05
5.9847353e-15
7.6099159e-05
4.9180943e-15
7.6099159e-05
2.7540288e-15
7.6099159e-05
6.9820883e-17
7.6099159e-05
-2.0940994e-15
7.6099159e-05
-3.686408e-15
7.6099159e-05
-5.0748171e-15
7.6099159e-05
-5.8424686e-15
7.6099159e-05
-5.9697202e-15
7.6099159e-05
-4.6272135e-15
7.6099159e-05
-2.4702934e-15
7.6099159e-05
2.5834951e-16
7.6099159e-05
2.4114022e-15
7.6099159e-05
3.8585169e-15
7.6099159e-05
4.6307655e-15
7.6099159e-05
4.7130121e-15
7.6099159e-05
4.4307109e-15
7.6099159e-05
4.1410488e-15
7.6099159e-05
4.3564554e-15
7.6099159e-05
5.1780203e-15
7.6099159e-05
5.923507e-15
7.6099159e-05
5.8890093e-15
7.6099159e-05
4.6227754e-15
7.6099159e-05
2.2083375e-15
7.6099159e-05
-4.6248798e-16
7.6099159e-05
-2.7047322e-15
7.6099159e-05
-3.911069e-15
7.6099159e-05
-4.5271908e-15
7.6099159e-05
-4.610575e-15
7.6099159e-05
-4.7172677e-15
7.6099159e-05
-4.6201908e-15
7.6099159e-05
-4.4367675e-15
7.6099159e-05
-4.1815883e-15
7.6099159e-05
-4.4359485e-15
7.6099159e-05
-5.0511359e-15
7.6099159e-05
-5.7656498e-15
7.6099159e-05
-5.8042859e-15
7.6099159e-05
-4.9294991e-15
7.6099159e-05
-2.9645401e-15
7.6099159e-05
-1.0933965e-17
7.6099159e-05
2.8404439e-15
7.6099159e-05
5.0708963e-15
7.6099159e-05
5.8046629e-15
7.6099159e-05
4.7685107e-15
7.6099159e-05
2.5408661e-15
7.6099159e-05
-3.2666626e-16
7.6099159e-05
-2.5409551e-15
7.6099159e-05
-3.957084e-15
7.6099159e-05
-4.6381189e-15
7.6099159e-05
-4.7028122e-15
7.6099159e-05
-4.6190459e-15
7.6099159e-05
-4.4682163e-15
7.6099159e-05
-4.4742647e-15
7.6099159e-05
-4.5067073e-15
7.6099159e-05
-4.649817e-15
7.6099159e-05
-4.663257e-15
7.6099159e-05
-4.6985168e-15
7.6099159e-05
-4.5354332e-15
7.6099159e-05
-4.5234836e-15
7.6099159e-05
-4.6181034e-15
7.6099159e-05
-4.8035307e-15
7.6099159e-05
-4.3973512e-15
7.6099159e-05
-3.8424474e-15
7.6099159e-05
-4.3404298e-15
7.6099159e-05
-6.1095178e-15
7.6099159e-05
-6.2936353e-15
-2.9722816e-15
0.00023312986
0.00043770624
0.00018548527
0.00017459871
0.00015018421
9.6939562e-05
0.0001310242
4.9741166e-05
0.00011965162
2.7696035e-05
0.0001131446
1.5916653e-05
0.00010931814
9.0865354e-06
0.00010710183
5.2976582e-06
0.00010582149
3.001573e-06
0.00010509347
1.712792e-06
0.00010468612
9.43054e-07
0.00010446306
5.1623179e-07
0.00010434425
2.7030852e-07
0.00010428311
1.3818986e-07
0.00010425319
6.5911529e-08
0.00010423959
2.9232715e-08
0.0001042342
1.0751368e-08
0.00010423268
2.4040091e-09
0.00010423281
-1.0812635e-09
0.00010423352
-2.1166319e-09
0.00010423431
-2.1443605e-09
0.000104235
-1.7794619e-09
0.00010423553
-1.3480334e-09
0.00010423592
-9.6033048e-10
0.00010423618
-6.5763273e-10
0.00010423636
-4.3577055e-10
0.00010423648
-2.8164517e-10
0.00010423655
-1.7789325e-10
0.0001042366
-1.1018765e-10
0.00010423662
-6.6950461e-11
0.00010423664
-3.9954639e-11
0.00010423665
-2.3395156e-11
0.00010423666
-1.3432767e-11
0.00010423666
-7.5453986e-12
0.00010423666
-4.1361737e-12
0.00010423666
-2.2015086e-12
0.00010423666
-1.1288413e-12
0.00010423666
-5.4860268e-13
0.00010423666
-2.4556179e-13
0.00010423666
-9.6151778e-14
0.00010423666
-2.7303055e-14
0.00010423666
1.7244764e-15
0.00010423666
1.3062182e-14
0.00010423666
1.4462428e-14
0.00010423666
1.2975903e-14
0.00010423666
1.0341498e-14
0.00010423666
9.8514859e-15
0.00010423666
8.6794418e-15
0.00010423666
8.7901489e-15
0.00010423666
7.2324375e-15
0.00010423666
8.6080828e-15
0.00010423666
8.3578331e-15
0.00010423666
8.9999942e-15
0.00010423666
7.7305236e-15
0.00010423666
6.6157606e-15
0.00010423666
5.0621105e-15
0.00010423666
4.1184457e-15
0.00010423666
2.8063264e-15
0.00010423666
3.7209211e-15
0.00010423666
2.4187108e-15
0.00010423666
2.7225545e-15
0.00010423666
2.0212984e-15
0.00010423666
2.2003333e-15
0.00010423666
2.0800763e-15
0.00010423666
1.8514765e-15
0.00010423666
1.6629128e-15
0.00010423666
1.4528713e-15
0.00010423666
1.9027157e-15
0.00010423666
2.8838723e-15
0.00010423666
4.1086743e-15
0.00010423666
4.233749e-15
0.00010423666
4.3335408e-15
0.00010423666
1.7389805e-15
0.00010423666
6.3176891e-16
0.00010423666
-2.6570682e-15
0.00010423666
-3.264065e-15
0.00010423666
-5.4351593e-15
0.00010423666
-4.7557668e-15
0.00010423666
-5.8942123e-15
0.00010423666
-4.5826212e-15
0.00010423666
-5.6875451e-15
0.00010423666
-4.488906e-15
0.00010423666
-5.773553e-15
0.00010423666
-4.6277073e-15
0.00010423666
-5.8902825e-15
0.00010423666
-4.733191e-15
0.00010423666
-5.9559148e-15
0.00010423666
-4.8214231e-15
0.00010423666
-5.9551857e-15
0.00010423666
-4.8618272e-15
0.00010423666
-5.93428e-15
0.00010423666
-4.8952733e-15
0.00010423666
-5.7793511e-15
0.00010423666
-4.6690171e-15
0.00010423666
-5.4720737e-15
0.00010423666
-4.6007891e-15
0.00010423666
-5.3114523e-15
0.00010423666
-4.2355227e-15
0.00010423666
-4.9314897e-15
0.00010423666
-4.6235465e-15
0.00010423666
-6.0944642e-15
0.00010423666
-5.7715922e-15
0.00010423666
-5.0672225e-15
0.00010423666
-2.6012603e-15
0.00010423666
-4.8390314e-16
0.00010423666
1.3116051e-15
0.00010423666
1.5149341e-15
0.00010423666
1.9126581e-15
0.00010423666
1.8934327e-15
0.00010423666
2.751325e-15
0.00010423666
3.4853587e-15
0.00010423666
3.6204671e-15
0.00010423666
2.4457826e-15
0.00010423666
8.7298245e-16
0.00010423666
-1.2760371e-15
0.00010423666
-2.856763e-15
0.00010423666
-4.701401e-15
0.00010423666
-5.8926724e-15
0.00010423666
-6.0133747e-15
0.00010423666
-5.04027e-15
0.00010423666
-2.6280116e-15
0.00010423666
-1.9792713e-16
0.00010423666
2.2585197e-15
0.00010423666
3.8653078e-15
0.00010423666
4.8958371e-15
0.00010423666