/*--------------------------------*- C++ -*----------------------------------*\
| =========                 |                                                 |
| \\      /  F ield         | OpenFOAM: The Open Source CFD Toolbox           |
|  \\    /   O peration     | Version:  2206                                  |
|   \\  /    A nd           | Website:  www.openfoam.com                      |
|    \\/     M anipulation  |                                                 |
\*---------------------------------------------------------------------------*/
FoamFile
{
    version     2.0;
    format      ascii;
    arch        "LSB;label=32;scalar=64";
    class       volVectorField;
    location    "20";
    object      U;
}
// * * * * * * * * * * * * * * * * * * * * * * * * * * * * * * * * * * * * * //

dimensions      [0 1 -1 0 0 0 0];

internalField   nonuniform List<vector> 
15000
(
(0.15962853 0.053997677 0)
(0.11557193 0.0064916431 0)
(0.06425136 0.0014144258 0)
(0.055918598 0.00074960768 0)
(0.047595817 0.00028827596 0)
(0.044708799 0.00019885016 0)
(0.042412495 9.0527784e-05 0)
(0.041406639 6.0131856e-05 0)
(0.040707477 2.8981386e-05 0)
(0.040376991 1.8020107e-05 0)
(0.040167798 8.6614266e-06 0)
(0.04006866 4.9945326e-06 0)
(0.040011053 2.2663395e-06 0)
(0.039985308 1.1728268e-06 0)
(0.039971973 4.4608004e-07 0)
(0.039967049 1.7362259e-07 0)
(0.03996518 1.405838e-08 0)
(0.039965127 -3.0106538e-08 0)
(0.039965544 -4.8529988e-08 0)
(0.039966152 -4.3096841e-08 0)
(0.03996668 -3.5616238e-08 0)
(0.039967111 -2.5945446e-08 0)
(0.039967422 -1.8489728e-08 0)
(0.039967642 -1.244153e-08 0)
(0.03996779 -8.2523081e-09 0)
(0.039967887 -5.2819662e-09 0)
(0.039967949 -3.334252e-09 0)
(0.039967988 -2.048955e-09 0)
(0.039968012 -1.241476e-09 0)
(0.039968026 -7.3494901e-10 0)
(0.039968035 -4.2760381e-10 0)
(0.03996804 -2.4233261e-10 0)
(0.039968042 -1.3393304e-10 0)
(0.039968044 -7.174879e-11 0)
(0.039968045 -3.7176789e-11 0)
(0.039968045 -1.8363657e-11 0)
(0.039968045 -8.2657343e-12 0)
(0.039968046 -3.1300075e-12 0)
(0.039968046 -6.2583717e-13 0)
(0.039968046 1.8396942e-13 0)
(0.039968046 3.6209267e-13 0)
(0.039968046 2.6172289e-13 0)
(0.039968046 3.6645261e-13 0)
(0.039968046 1.1086022e-13 0)
(0.039968046 -6.6622841e-14 0)
(0.039968046 -3.2473002e-13 0)
(0.039968046 -9.7802266e-14 0)
(0.039968046 1.1079893e-13 0)
(0.039968046 6.8026081e-13 0)
(0.039968046 7.1463587e-13 0)
(0.039968046 1.1276987e-12 0)
(0.039968046 9.8931931e-13 0)
(0.039968046 1.1055557e-12 0)
(0.039968046 8.4866187e-13 0)
(0.039968046 7.9548816e-13 0)
(0.039968046 5.9980261e-13 0)
(0.039968046 5.6396878e-13 0)
(0.039968046 2.8277055e-13 0)
(0.039968046 5.5927824e-13 0)
(0.039968046 2.7419636e-13 0)
(0.039968046 4.7498394e-13 0)
(0.039968046 2.9097084e-13 0)
(0.039968046 4.0829905e-13 0)
(0.039968046 2.96388e-13 0)
(0.039968046 3.2945061e-13 0)
(0.039968046 2.5498278e-13 0)
(0.039968046 2.4751318e-13 0)
(0.039968046 2.3938451e-13 0)
(0.039968046 3.5123818e-13 0)
(0.039968046 4.4162237e-13 0)
(0.039968046 6.2430934e-13 0)
(0.039968046 5.9266077e-13 0)
(0.039968046 4.7810584e-13 0)
(0.039968046 2.2010123e-13 0)
(0.039968046 -1.2950218e-13 0)
(0.039968046 -3.5274951e-13 0)
(0.039968046 -5.3128371e-13 0)
(0.039968046 -5.3675483e-13 0)
(0.039968046 -5.9302401e-13 0)
(0.039968046 -5.2677897e-13 0)
(0.039968046 -5.9553058e-13 0)
(0.039968046 -5.3420247e-13 0)
(0.039968046 -6.1894104e-13 0)
(0.039968046 -5.4271371e-13 0)
(0.039968046 -6.2255129e-13 0)
(0.039968046 -5.3560914e-13 0)
(0.039968046 -6.1860912e-13 0)
(0.039968046 -5.2765975e-13 0)
(0.039968046 -6.0829839e-13 0)
(0.039968046 -5.1632498e-13 0)
(0.039968046 -5.9893368e-13 0)
(0.039968046 -5.1673725e-13 0)
(0.039968046 -5.9058335e-13 0)
(0.039968046 -4.9823378e-13 0)
(0.039968046 -5.6378281e-13 0)
(0.039968046 -4.9979872e-13 0)
(0.039968046 -5.7185951e-13 0)
(0.039968046 -4.7274338e-13 0)
(0.039968046 -5.0144121e-13 0)
(0.039968046 -4.7414163e-13 0)
(0.039968046 -6.4648131e-13 0)
(0.039968046 -7.4311608e-13 0)
(0.039968046 -7.7337251e-13 0)
(0.039968046 -5.2149591e-13 0)
(0.039968046 -1.4891098e-13 0)
(0.039968046 2.3167697e-13 0)
(0.039968046 3.2055557e-13 0)
(0.039968046 2.7459437e-13 0)
(0.039968046 1.3784817e-13 0)
(0.039968046 1.6751223e-13 0)
(0.039968046 3.1605013e-13 0)
(0.039968046 4.8155063e-13 0)
(0.039968046 4.7004022e-13 0)
(0.039968046 3.0781368e-13 0)
(0.039968046 3.6223273e-14 0)
(0.039968046 -2.0517319e-13 0)
(0.039968046 -4.2285297e-13 0)
(0.039968046 -6.2325348e-13 0)
(0.039968046 -7.1025354e-13 0)
(0.039968046 -7.0564877e-13 0)
(0.039968046 -5.0172759e-13 0)
(0.039968046 -1.9246899e-13 0)
(0.039968046 1.3935198e-13 0)
(0.039968046 3.6443612e-13 0)
(0.039968046 4.864088e-13 0)
(0.039968046 5.3291588e-13 0)
(0.039968046 5.3892065e-13 0)
(0.039968046 5.3873324e-13 0)
(0.039968046 5.3838681e-13 0)
(0.039968046 5.4235529e-13 0)
(0.039968046 5.4491272e-13 0)
(0.039968046 5.4638207e-13 0)
(0.039968046 5.4439529e-13 0)
(0.039968046 5.4257975e-13 0)
(0.039968046 5.388354e-13 0)
(0.039968046 5.3877753e-13 0)
(0.039968046 5.356012e-13 0)
(0.039968046 5.3893615e-13 0)
(0.039968046 5.3559151e-13 0)
(0.039968046 5.3904298e-13 0)
(0.039968046 5.3408939e-13 0)
(0.039968046 5.4015732e-13 0)
(0.039968046 5.3618804e-13 0)
(0.039968046 5.3903093e-13 0)
(0.039968046 5.3204791e-13 0)
(0.039968046 5.4397909e-13 0)
(0.039968046 5.4084872e-13 0)
(0.039968046 5.2624419e-13 0)
(0.039968046 4.9293479e-13 0)
(0.039968046 5.2401174e-13 0)
(0.039968046 6.1013795e-13 0)
(0.039968046 7.4181743e-13 0)
(0.039968046 7.6750429e-13 0)
(0.039968046 6.7846409e-13 0)
(0.039968046 3.8480343e-13 0)
(0.039968046 3.8485318e-14 0)
(0.039968046 -2.4786335e-13 0)
(0.039968046 -4.3785215e-13 0)
(0.039968046 -5.0316001e-13 0)
(0.039968046 -5.2467849e-13 0)
(0.039968046 -5.0439803e-13 0)
(0.039968046 -5.1518241e-13 0)
(0.039968046 -5.1811967e-13 0)
(0.039968046 -5.3895785e-13 0)
(0.039968046 -5.2997856e-13 0)
(0.039968046 -5.4842973e-13 0)
(0.039968046 -5.3114495e-13 0)
(0.039968046 -5.4578067e-13 0)
(0.039968046 -5.2971109e-13 0)
(0.039968046 -5.4491769e-13 0)
(0.039968046 -5.2932747e-13 0)
(0.039968046 -5.4586902e-13 0)
(0.039968046 -5.3032248e-13 0)
(0.039968046 -5.4668495e-13 0)
(0.039968046 -5.3157914e-13 0)
(0.039968046 -5.4735814e-13 0)
(0.039968046 -5.3517878e-13 0)
(0.039968046 -5.4975723e-13 0)
(0.039968046 -5.3933392e-13 0)
(0.039968046 -5.5679077e-13 0)
(0.039968046 -5.5013732e-13 0)
(0.039968046 -5.7223e-13 0)
(0.039968046 -5.6096104e-13 0)
(0.039968046 -5.7820306e-13 0)
(0.039968046 -5.6785369e-13 0)
(0.039968046 -5.9090147e-13 0)
(0.039968046 -5.9423171e-13 0)
(0.039968046 -6.1135727e-13 0)
(0.039968046 -5.8208626e-13 0)
(0.039968046 -5.4771005e-13 0)
(0.039968046 -5.4572622e-13 0)
(0.039968046 -6.1719049e-13 0)
(0.039968046 -7.3721183e-13 0)
(0.039968046 -8.0864473e-13 0)
(0.039968046 -7.5638255e-13 0)
(0.039968046 -5.2656268e-13 0)
(0.039968046 -1.9712165e-13 0)
(0.039968046 1.444891e-13 0)
(0.039968046 3.4642263e-13 0)
(0.039968046 4.9798976e-13 0)
(0.039968046 5.4251297e-13 0)
(0.039968046 5.8410228e-13 0)
(0.039968046 5.7255582e-13 0)
(0.039968046 5.9429999e-13 0)
(0.039968046 5.7740708e-13 0)
(0.039968046 5.9316983e-13 0)
(0.039968046 5.7979675e-13 0)
(0.039968046 5.8643784e-13 0)
(0.039968046 5.8429505e-13 0)
(0.039968046 5.9938618e-13 0)
(0.039968046 6.1333602e-13 0)
(0.039968046 6.0131904e-13 0)
(0.039968046 5.5687395e-13 0)
(0.039968046 5.1297815e-13 0)
(0.039968046 5.4198351e-13 0)
(0.039968046 6.285633e-13 0)
(0.039968046 7.3989054e-13 0)
(0.039968046 7.3848186e-13 0)
(0.039968046 5.9824799e-13 0)
(0.039968046 2.8556535e-13 0)
(0.039968046 -7.4553813e-14 0)
(0.039968046 -3.2295749e-13 0)
(0.039968046 -4.4727757e-13 0)
(0.039968046 -4.7172721e-13 0)
(0.039968046 -5.0785287e-13 0)
(0.039968046 -6.0156479e-13 0)
(0.039968046 -6.8974493e-13 0)
(0.039968046 -7.308629e-13 0)
(0.039968046 -6.2192413e-13 0)
(0.039968046 -4.0564745e-13 0)
(0.039968046 -5.3004545e-14 0)
(0.039968046 3.0445703e-13 0)
(0.039968046 5.9251414e-13 0)
(0.039968046 7.4030694e-13 0)
(0.039968046 6.5141911e-13 0)
(0.039968046 4.0222501e-13 0)
(0.039968046 6.7394915e-14 0)
(0.039968046 -2.0548756e-13 0)
(0.039968046 -3.9396797e-13 0)
(0.039968046 -5.7071369e-13 0)
(0.039968046 -6.8375643e-13 0)
(0.039968046 -7.4257269e-13 0)
(0.039968046 -6.219656e-13 0)
(0.039968046 -3.721875e-13 0)
(0.039968046 -3.0667167e-14 0)
(0.039968046 2.4826545e-13 0)
(0.039968046 4.2919395e-13 0)
(0.039968046 5.2792073e-13 0)
(0.039968046 5.4135913e-13 0)
(0.039968046 5.069891e-13 0)
(0.039968046 4.6679041e-13 0)
(0.039968046 4.885607e-13 0)
(0.039968046 5.9511175e-13 0)
(0.039968046 7.1338234e-13 0)
(0.039968046 7.4951757e-13 0)
(0.039968046 6.341192e-13 0)
(0.039968046 3.4555275e-13 0)
(0.039968046 1.3240334e-15 0)
(0.039968046 -2.8800639e-13 0)
(0.039968046 -4.4145443e-13 0)
(0.039968046 -5.1747825e-13 0)
(0.039968046 -5.2476324e-13 0)
(0.039968046 -5.4226269e-13 0)
(0.039968046 -5.3476861e-13 0)
(0.039968046 -5.1691898e-13 0)
(0.039968046 -4.7877513e-13 0)
(0.039968046 -5.0411105e-13 0)
(0.039968046 -5.8029699e-13 0)
(0.039968046 -6.9020482e-13 0)
(0.039968046 -7.2900046e-13 0)
(0.039968046 -6.6191453e-13 0)
(0.039968046 -4.4380095e-13 0)
(0.039968046 -7.7152778e-14 0)
(0.039968046 2.9248701e-13 0)
(0.039968046 5.9338619e-13 0)
(0.039968046 7.2437243e-13 0)
(0.039968046 6.3581088e-13 0)
(0.039968046 3.7780877e-13 0)
(0.039968046 1.7616258e-14 0)
(0.039968046 -2.6920266e-13 0)
(0.039968046 -4.4397653e-13 0)
(0.039968046 -5.3026358e-13 0)
(0.039968046 -5.3817948e-13 0)
(0.039968046 -5.3155608e-13 0)
(0.039968046 -5.1521267e-13 0)
(0.039968046 -5.1841583e-13 0)
(0.039968046 -5.2335632e-13 0)
(0.039968046 -5.4426678e-13 0)
(0.039968046 -5.4587327e-13 0)
(0.039968046 -5.5271623e-13 0)
(0.039968046 -5.3073401e-13 0)
(0.039968046 -5.2865513e-13 0)
(0.039968046 -5.3859012e-13 0)
(0.039968046 -5.6787505e-13 0)
(0.039968046 -5.1964737e-13 0)
(0.039968046 -4.3789219e-13 0)
(0.039968046 -4.8019258e-13 0)
(0.039968046 -7.2142815e-13 0)
(0.039968046 -7.9176543e-13 0)
(0.039968046 -3.9906805e-13 0)
(0.36732383 0.14062829 0)
(0.29754389 0.025079389 0)
(0.1860793 0.0083694793 0)
(0.16132807 0.0041218976 0)
(0.13901859 0.0019376029 0)
(0.13040448 0.0011770437 0)
(0.12396461 0.00061114373 0)
(0.12095999 0.00037192823 0)
(0.1189454 0.00019726895 0)
(0.11794826 0.00011564018 0)
(0.11733081 6.0256957e-05 0)
(0.11702581 3.3412123e-05 0)
(0.11685066 1.6508614e-05 0)
(0.11676842 8.3904467e-06 0)
(0.1167257 3.6618122e-06 0)
(0.11670834 1.5200448e-06 0)
(0.1167012 3.9916117e-07 0)
(0.11669986 -2.7998165e-08 0)
(0.1167004 -1.9874168e-07 0)
(0.11670175 -2.1552056e-07 0)
(0.11670304 -1.8996817e-07 0)
(0.11670415 -1.4576144e-07 0)
(0.11670497 -1.0624451e-07 0)
(0.11670557 -7.3277608e-08 0)
(0.11670597 -4.9210799e-08 0)
(0.11670624 -3.1987206e-08 0)
(0.11670642 -2.038807e-08 0)
(0.11670653 -1.2687007e-08 0)
(0.11670659 -7.7612474e-09 0)
(0.11670664 -4.650878e-09 0)
(0.11670666 -2.7381983e-09 0)
(0.11670667 -1.5768688e-09 0)
(0.11670668 -8.8861337e-10 0)
(0.11670669 -4.8808128e-10 0)
(0.11670669 -2.6080225e-10 0)
(0.11670669 -1.342196e-10 0)
(0.11670669 -6.5378209e-11 0)
(0.11670669 -2.9047923e-11 0)
(0.11670669 -1.0797127e-11 0)
(0.11670669 -2.8451078e-12 0)
(0.11670669 1.70298e-13 0)
(0.11670669 1.0342375e-12 0)
(0.11670669 1.5071384e-12 0)
(0.11670669 9.002122e-13 0)
(0.11670669 1.8185354e-13 0)
(0.11670669 -6.2174598e-13 0)
(0.11670669 -1.3335413e-13 0)
(0.11670669 5.8371076e-13 0)
(0.11670669 2.0033118e-12 0)
(0.11670669 2.3229152e-12 0)
(0.11670669 3.2761901e-12 0)
(0.11670669 3.0514689e-12 0)
(0.11670669 3.1078362e-12 0)
(0.11670669 2.4291065e-12 0)
(0.11670669 2.1185615e-12 0)
(0.11670669 1.6655435e-12 0)
(0.11670669 1.5143108e-12 0)
(0.11670669 1.0141216e-12 0)
(0.11670669 1.4877341e-12 0)
(0.11670669 1.0082997e-12 0)
(0.11670669 1.2877001e-12 0)
(0.11670669 9.8505432e-13 0)
(0.11670669 1.0908652e-12 0)
(0.11670669 9.0166953e-13 0)
(0.11670669 7.9800317e-13 0)
(0.11670669 6.4145271e-13 0)
(0.11670669 5.5309026e-13 0)
(0.11670669 6.0516588e-13 0)
(0.11670669 9.1446451e-13 0)
(0.11670669 1.3651615e-12 0)
(0.11670669 1.7494271e-12 0)
(0.11670669 1.8931511e-12 0)
(0.11670669 1.3747424e-12 0)
(0.11670669 7.7735621e-13 0)
(0.11670669 -4.2474572e-13 0)
(0.11670669 -9.4510561e-13 0)
(0.11670669 -1.6029207e-12 0)
(0.11670669 -1.5016281e-12 0)
(0.11670669 -1.7712883e-12 0)
(0.11670669 -1.476636e-12 0)
(0.11670669 -1.77144e-12 0)
(0.11670669 -1.5084796e-12 0)
(0.11670669 -1.837621e-12 0)
(0.11670669 -1.5448889e-12 0)
(0.11670669 -1.8456864e-12 0)
(0.11670669 -1.5334145e-12 0)
(0.11670669 -1.8322349e-12 0)
(0.11670669 -1.5195498e-12 0)
(0.11670669 -1.8007149e-12 0)
(0.11670669 -1.4943349e-12 0)
(0.11670669 -1.7716977e-12 0)
(0.11670669 -1.5027106e-12 0)
(0.11670669 -1.7494208e-12 0)
(0.11670669 -1.4563307e-12 0)
(0.11670669 -1.6668512e-12 0)
(0.11670669 -1.4589837e-12 0)
(0.11670669 -1.6930578e-12 0)
(0.11670669 -1.3975376e-12 0)
(0.11670669 -1.4948848e-12 0)
(0.11670669 -1.374303e-12 0)
(0.11670669 -1.9034381e-12 0)
(0.11670669 -2.1720445e-12 0)
(0.11670669 -2.3009231e-12 0)
(0.11670669 -1.5883916e-12 0)
(0.11670669 -4.7138802e-13 0)
(0.11670669 6.6102994e-13 0)
(0.11670669 9.4843596e-13 0)
(0.11670669 8.0565223e-13 0)
(0.11670669 3.6168155e-13 0)
(0.11670669 4.2219859e-13 0)
(0.11670669 8.7467948e-13 0)
(0.11670669 1.3810102e-12 0)
(0.11670669 1.3761081e-12 0)
(0.11670669 9.1793849e-13 0)
(0.11670669 9.3876651e-14 0)
(0.11670669 -5.9055043e-13 0)
(0.11670669 -1.2566824e-12 0)
(0.11670669 -1.8169171e-12 0)
(0.11670669 -2.1095484e-12 0)
(0.11670669 -2.0905199e-12 0)
(0.11670669 -1.4950354e-12 0)
(0.11670669 -5.913121e-13 0)
(0.11670669 4.1034681e-13 0)
(0.11670669 1.0685672e-12 0)
(0.11670669 1.4367086e-12 0)
(0.11670669 1.5638295e-12 0)
(0.11670669 1.5832395e-12 0)
(0.11670669 1.5776125e-12 0)
(0.11670669 1.5804852e-12 0)
(0.11670669 1.5890493e-12 0)
(0.11670669 1.6001551e-12 0)
(0.11670669 1.6005865e-12 0)
(0.11670669 1.5980323e-12 0)
(0.11670669 1.5891021e-12 0)
(0.11670669 1.5816832e-12 0)
(0.11670669 1.5773174e-12 0)
(0.11670669 1.5726121e-12 0)
(0.11670669 1.5770849e-12 0)
(0.11670669 1.5726519e-12 0)
(0.11670669 1.5768562e-12 0)
(0.11670669 1.5674078e-12 0)
(0.11670669 1.5788281e-12 0)
(0.11670669 1.5738238e-12 0)
(0.11670669 1.575312e-12 0)
(0.11670669 1.558921e-12 0)
(0.11670669 1.5876442e-12 0)
(0.11670669 1.5864652e-12 0)
(0.11670669 1.5421156e-12 0)
(0.11670669 1.4462699e-12 0)
(0.11670669 1.5169731e-12 0)
(0.11670669 1.7847267e-12 0)
(0.11670669 2.1545942e-12 0)
(0.11670669 2.2644806e-12 0)
(0.11670669 2.0015648e-12 0)
(0.11670669 1.1390358e-12 0)
(0.11670669 1.2881541e-13 0)
(0.11670669 -7.4295056e-13 0)
(0.11670669 -1.296164e-12 0)
(0.11670669 -1.4944649e-12 0)
(0.11670669 -1.5485216e-12 0)
(0.11670669 -1.4814856e-12 0)
(0.11670669 -1.5049311e-12 0)
(0.11670669 -1.5147068e-12 0)
(0.11670669 -1.5678011e-12 0)
(0.11670669 -1.5596233e-12 0)
(0.11670669 -1.6036264e-12 0)
(0.11670669 -1.5632305e-12 0)
(0.11670669 -1.5961195e-12 0)
(0.11670669 -1.5589255e-12 0)
(0.11670669 -1.5919372e-12 0)
(0.11670669 -1.5567585e-12 0)
(0.11670669 -1.5926692e-12 0)
(0.11670669 -1.5585182e-12 0)
(0.11670669 -1.5942426e-12 0)
(0.11670669 -1.5603157e-12 0)
(0.11670669 -1.5954685e-12 0)
(0.11670669 -1.569333e-12 0)
(0.11670669 -1.6020982e-12 0)
(0.11670669 -1.5781371e-12 0)
(0.11670669 -1.6221372e-12 0)
(0.11670669 -1.6058863e-12 0)
(0.11670669 -1.6647969e-12 0)
(0.11670669 -1.6360506e-12 0)
(0.11670669 -1.677696e-12 0)
(0.11670669 -1.6546479e-12 0)
(0.11670669 -1.7080345e-12 0)
(0.11670669 -1.7275474e-12 0)
(0.11670669 -1.766017e-12 0)
(0.11670669 -1.6871123e-12 0)
(0.11670669 -1.5793494e-12 0)
(0.11670669 -1.5657461e-12 0)
(0.11670669 -1.7625974e-12 0)
(0.11670669 -2.1293097e-12 0)
(0.11670669 -2.3413889e-12 0)
(0.11670669 -2.1975475e-12 0)
(0.11670669 -1.5397359e-12 0)
(0.11670669 -5.4698883e-13 0)
(0.11670669 4.3969707e-13 0)
(0.11670669 1.0526931e-12 0)
(0.11670669 1.4751804e-12 0)
(0.11670669 1.6007718e-12 0)
(0.11670669 1.6995448e-12 0)
(0.11670669 1.6701907e-12 0)
(0.11670669 1.7193076e-12 0)
(0.11670669 1.676342e-12 0)
(0.11670669 1.7144107e-12 0)
(0.11670669 1.6804227e-12 0)
(0.11670669 1.6968183e-12 0)
(0.11670669 1.6906975e-12 0)
(0.11670669 1.7379033e-12 0)
(0.11670669 1.7778572e-12 0)
(0.11670669 1.7548124e-12 0)
(0.11670669 1.6228886e-12 0)
(0.11670669 1.4964018e-12 0)
(0.11670669 1.5640704e-12 0)
(0.11670669 1.831285e-12 0)
(0.11670669 2.1555547e-12 0)
(0.11670669 2.1741464e-12 0)
(0.11670669 1.7613003e-12 0)
(0.11670669 8.4839417e-13 0)
(0.11670669 -2.1610106e-13 0)
(0.11670669 -9.6224995e-13 0)
(0.11670669 -1.3221026e-12 0)
(0.11670669 -1.3858188e-12 0)
(0.11670669 -1.4792011e-12 0)
(0.11670669 -1.7456417e-12 0)
(0.11670669 -2.029308e-12 0)
(0.11670669 -2.1452072e-12 0)
(0.11670669 -1.8425782e-12 0)
(0.11670669 -1.209639e-12 0)
(0.11670669 -1.6570322e-13 0)
(0.11670669 8.6941156e-13 0)
(0.11670669 1.7546901e-12 0)
(0.11670669 2.1766928e-12 0)
(0.11670669 1.9361852e-12 0)
(0.11670669 1.2033618e-12 0)
(0.11670669 1.9778003e-13 0)
(0.11670669 -5.9851961e-13 0)
(0.11670669 -1.1649372e-12 0)
(0.11670669 -1.6568536e-12 0)
(0.11670669 -2.0157584e-12 0)
(0.11670669 -2.1799334e-12 0)
(0.11670669 -1.8428694e-12 0)
(0.11670669 -1.117529e-12 0)
(0.11670669 -9.4696379e-14 0)
(0.11670669 7.204471e-13 0)
(0.11670669 1.2699515e-12 0)
(0.11670669 1.553736e-12 0)
(0.11670669 1.5954551e-12 0)
(0.11670669 1.4958092e-12 0)
(0.11670669 1.3694658e-12 0)
(0.11670669 1.4229264e-12 0)
(0.11670669 1.736649e-12 0)
(0.11670669 2.0886734e-12 0)
(0.11670669 2.2057182e-12 0)
(0.11670669 1.8771542e-12 0)
(0.11670669 1.0278805e-12 0)
(0.11670669 1.0963067e-14 0)
(0.11670669 -8.5165241e-13 0)
(0.11670669 -1.3111475e-12 0)
(0.11670669 -1.5204855e-12 0)
(0.11670669 -1.5477359e-12 0)
(0.11670669 -1.5872013e-12 0)
(0.11670669 -1.5786654e-12 0)
(0.11670669 -1.5182314e-12 0)
(0.11670669 -1.4130538e-12 0)
(0.11670669 -1.4678389e-12 0)
(0.11670669 -1.6995654e-12 0)
(0.11670669 -2.018458e-12 0)
(0.11670669 -2.1493562e-12 0)
(0.11670669 -1.9529613e-12 0)
(0.11670669 -1.3174814e-12 0)
(0.11670669 -2.4796908e-13 0)
(0.11670669 8.4031751e-13 0)
(0.11670669 1.7467783e-12 0)
(0.11670669 2.1344429e-12 0)
(0.11670669 1.8926215e-12 0)
(0.11670669 1.1333519e-12 0)
(0.11670669 5.6324016e-14 0)
(0.11670669 -7.8087932e-13 0)
(0.11670669 -1.3153936e-12 0)
(0.11670669 -1.5560197e-12 0)
(0.11670669 -1.5857165e-12 0)
(0.11670669 -1.5572431e-12 0)
(0.11670669 -1.5129295e-12 0)
(0.11670669 -1.5222317e-12 0)
(0.11670669 -1.5428976e-12 0)
(0.11670669 -1.5942237e-12 0)
(0.11670669 -1.6090741e-12 0)
(0.11670669 -1.6196694e-12 0)
(0.11670669 -1.5638015e-12 0)
(0.11670669 -1.5450428e-12 0)
(0.11670669 -1.5802812e-12 0)
(0.11670669 -1.662387e-12 0)
(0.11670669 -1.538544e-12 0)
(0.11670669 -1.2875533e-12 0)
(0.11670669 -1.3860721e-12 0)
(0.11670669 -2.0703698e-12 0)
(0.11670669 -2.3652335e-12 0)
(0.11670669 -1.2573508e-12 0)
(0.50390834 0.19019021 0)
(0.43847039 0.050431512 0)
(0.29767008 0.022055336 0)
(0.25944374 0.010780128 0)
(0.22598939 0.0055621684 0)
(0.21213187 0.0032308255 0)
(0.20205719 0.001773311 0)
(0.19716897 0.0010457513 0)
(0.19394744 0.00057679898 0)
(0.19230772 0.0003313319 0)
(0.19130242 0.00017832409 0)
(0.19079327 9.77207e-05 0)
(0.19050201 4.9917791e-05 0)
(0.1903612 2.5322534e-05 0)
(0.19028762 1.161732e-05 0)
(0.19025609 4.9672139e-06 0)
(0.1902425 1.5955952e-06 0)
(0.19023894 1.7329993e-07 0)
(0.19023899 -3.9958076e-07 0)
(0.19024063 -5.2208245e-07 0)
(0.19024241 -4.8449759e-07 0)
(0.19024402 -3.8447815e-07 0)
(0.19024524 -2.8463194e-07 0)
(0.19024615 -1.9918775e-07 0)
(0.19024677 -1.3484785e-07 0)
(0.19024719 -8.8421613e-08 0)
(0.19024746 -5.669424e-08 0)
(0.19024763 -3.5523709e-08 0)
(0.19024774 -2.1852491e-08 0)
(0.1902478 -1.3180906e-08 0)
(0.19024784 -7.8095266e-09 0)
(0.19024787 -4.5344911e-09 0)
(0.19024788 -2.5795074e-09 0)
(0.19024789 -1.4334039e-09 0)
(0.19024789 -7.7617716e-10 0)
(0.19024789 -4.0665618e-10 0)
(0.1902479 -2.0372099e-10 0)
(0.1902479 -9.5328549e-11 0)
(0.1902479 -3.9756122e-11 0)
(0.1902479 -1.3618575e-11 0)
(0.1902479 -2.4049161e-12 0)
(0.1902479 1.7777445e-12 0)
(0.1902479 3.4833365e-12 0)
(0.1902479 2.8871903e-12 0)
(0.1902479 1.8078496e-12 0)
(0.1902479 5.3861723e-13 0)
(0.1902479 9.2965854e-13 0)
(0.1902479 1.5946866e-12 0)
(0.1902479 3.1873314e-12 0)
(0.1902479 3.4322698e-12 0)
(0.1902479 4.6202824e-12 0)
(0.1902479 4.361402e-12 0)
(0.1902479 4.4492535e-12 0)
(0.1902479 3.5511064e-12 0)
(0.1902479 3.0650969e-12 0)
(0.1902479 2.3955057e-12 0)
(0.1902479 2.0945304e-12 0)
(0.1902479 1.4242986e-12 0)
(0.1902479 2.036432e-12 0)
(0.1902479 1.4083488e-12 0)
(0.1902479 1.7372452e-12 0)
(0.1902479 1.3458134e-12 0)
(0.1902479 1.4763696e-12 0)
(0.1902479 1.2566242e-12 0)
(0.1902479 1.1091058e-12 0)
(0.1902479 9.1363563e-13 0)
(0.1902479 7.8492886e-13 0)
(0.1902479 8.8525583e-13 0)
(0.1902479 1.3190512e-12 0)
(0.1902479 1.9610021e-12 0)
(0.1902479 2.4168034e-12 0)
(0.1902479 2.613653e-12 0)
(0.1902479 1.777557e-12 0)
(0.1902479 9.7533958e-13 0)
(0.1902479 -7.0847894e-13 0)
(0.1902479 -1.3705237e-12 0)
(0.1902479 -2.3238776e-12 0)
(0.1902479 -2.1508929e-12 0)
(0.1902479 -2.5582922e-12 0)
(0.1902479 -2.1071917e-12 0)
(0.1902479 -2.5386595e-12 0)
(0.1902479 -2.1377771e-12 0)
(0.1902479 -2.6234011e-12 0)
(0.1902479 -2.1948631e-12 0)
(0.1902479 -2.6461043e-12 0)
(0.1902479 -2.1945222e-12 0)
(0.1902479 -2.6390018e-12 0)
(0.1902479 -2.1895285e-12 0)
(0.1902479 -2.6047949e-12 0)
(0.1902479 -2.1670202e-12 0)
(0.1902479 -2.5730751e-12 0)
(0.1902479 -2.1820619e-12 0)
(0.1902479 -2.536323e-12 0)
(0.1902479 -2.1116051e-12 0)
(0.1902479 -2.4157961e-12 0)
(0.1902479 -2.1082912e-12 0)
(0.1902479 -2.4338437e-12 0)
(0.1902479 -2.0107723e-12 0)
(0.1902479 -2.1768726e-12 0)
(0.1902479 -2.0146312e-12 0)
(0.1902479 -2.7476601e-12 0)
(0.1902479 -3.0374784e-12 0)
(0.1902479 -3.1231527e-12 0)
(0.1902479 -2.0931008e-12 0)
(0.1902479 -6.0844827e-13 0)
(0.1902479 8.6937916e-13 0)
(0.1902479 1.2332307e-12 0)
(0.1902479 1.0979729e-12 0)
(0.1902479 5.7244749e-13 0)
(0.1902479 7.0620356e-13 0)
(0.1902479 1.2966945e-12 0)
(0.1902479 1.8995666e-12 0)
(0.1902479 1.7968892e-12 0)
(0.1902479 1.1293189e-12 0)
(0.1902479 -1.4977658e-14 0)
(0.1902479 -9.4700719e-13 0)
(0.1902479 -1.8845215e-12 0)
(0.1902479 -2.6327705e-12 0)
(0.1902479 -2.9868715e-12 0)
(0.1902479 -2.8767341e-12 0)
(0.1902479 -1.9665959e-12 0)
(0.1902479 -7.0311279e-13 0)
(0.1902479 6.7752581e-13 0)
(0.1902479 1.5868771e-12 0)
(0.1902479 2.1049997e-12 0)
(0.1902479 2.2838319e-12 0)
(0.1902479 2.3078244e-12 0)
(0.1902479 2.2897602e-12 0)
(0.1902479 2.2832211e-12 0)
(0.1902479 2.2855075e-12 0)
(0.1902479 2.296161e-12 0)
(0.1902479 2.293436e-12 0)
(0.1902479 2.2883167e-12 0)
(0.1902479 2.2748668e-12 0)
(0.1902479 2.2652115e-12 0)
(0.1902479 2.2580447e-12 0)
(0.1902479 2.252083e-12 0)
(0.1902479 2.2562838e-12 0)
(0.1902479 2.2501293e-12 0)
(0.1902479 2.2532277e-12 0)
(0.1902479 2.2410728e-12 0)
(0.1902479 2.2535195e-12 0)
(0.1902479 2.2453265e-12 0)
(0.1902479 2.2427012e-12 0)
(0.1902479 2.2202111e-12 0)
(0.1902479 2.2556487e-12 0)
(0.1902479 2.2510478e-12 0)
(0.1902479 2.1916709e-12 0)
(0.1902479 2.0794981e-12 0)
(0.1902479 2.198334e-12 0)
(0.1902479 2.5759743e-12 0)
(0.1902479 3.0389302e-12 0)
(0.1902479 3.1111595e-12 0)
(0.1902479 2.6568733e-12 0)
(0.1902479 1.4317658e-12 0)
(0.1902479 5.9991868e-14 0)
(0.1902479 -1.1259587e-12 0)
(0.1902479 -1.8841955e-12 0)
(0.1902479 -2.1609845e-12 0)
(0.1902479 -2.236887e-12 0)
(0.1902479 -2.1382485e-12 0)
(0.1902479 -2.1622638e-12 0)
(0.1902479 -2.1682703e-12 0)
(0.1902479 -2.2341954e-12 0)
(0.1902479 -2.2251298e-12 0)
(0.1902479 -2.2858752e-12 0)
(0.1902479 -2.2316401e-12 0)
(0.1902479 -2.2761581e-12 0)
(0.1902479 -2.2259238e-12 0)
(0.1902479 -2.2688945e-12 0)
(0.1902479 -2.220869e-12 0)
(0.1902479 -2.2677329e-12 0)
(0.1902479 -2.2226633e-12 0)
(0.1902479 -2.2689957e-12 0)
(0.1902479 -2.2246738e-12 0)
(0.1902479 -2.2711963e-12 0)
(0.1902479 -2.2374067e-12 0)
(0.1902479 -2.2797014e-12 0)
(0.1902479 -2.2469772e-12 0)
(0.1902479 -2.306006e-12 0)
(0.1902479 -2.2845688e-12 0)
(0.1902479 -2.3651599e-12 0)
(0.1902479 -2.3264818e-12 0)
(0.1902479 -2.3852939e-12 0)
(0.1902479 -2.3578643e-12 0)
(0.1902479 -2.4298013e-12 0)
(0.1902479 -2.4557393e-12 0)
(0.1902479 -2.4987811e-12 0)
(0.1902479 -2.3866139e-12 0)
(0.1902479 -2.2472642e-12 0)
(0.1902479 -2.2505142e-12 0)
(0.1902479 -2.5221073e-12 0)
(0.1902479 -2.9959728e-12 0)
(0.1902479 -3.2096808e-12 0)
(0.1902479 -2.9105245e-12 0)
(0.1902479 -1.9439925e-12 0)
(0.1902479 -5.7736482e-13 0)
(0.1902479 7.51447e-13 0)
(0.1902479 1.5829432e-12 0)
(0.1902479 2.1580191e-12 0)
(0.1902479 2.3282349e-12 0)
(0.1902479 2.4534231e-12 0)
(0.1902479 2.4015336e-12 0)
(0.1902479 2.4521931e-12 0)
(0.1902479 2.3825279e-12 0)
(0.1902479 2.4253714e-12 0)
(0.1902479 2.3766958e-12 0)
(0.1902479 2.398457e-12 0)
(0.1902479 2.3956463e-12 0)
(0.1902479 2.4617697e-12 0)
(0.1902479 2.5138868e-12 0)
(0.1902479 2.4741034e-12 0)
(0.1902479 2.2955083e-12 0)
(0.1902479 2.1429315e-12 0)
(0.1902479 2.2574328e-12 0)
(0.1902479 2.6179925e-12 0)
(0.1902479 3.0081335e-12 0)
(0.1902479 2.9468228e-12 0)
(0.1902479 2.2892812e-12 0)
(0.1902479 1.0109209e-12 0)
(0.1902479 -4.3124739e-13 0)
(0.1902479 -1.4379935e-12 0)
(0.1902479 -1.9330015e-12 0)
(0.1902479 -2.0420116e-12 0)
(0.1902479 -2.1913861e-12 0)
(0.1902479 -2.5470841e-12 0)
(0.1902479 -2.8822081e-12 0)
(0.1902479 -2.9522973e-12 0)
(0.1902479 -2.4433268e-12 0)
(0.1902479 -1.5194149e-12 0)
(0.1902479 -6.7465398e-14 0)
(0.1902479 1.3433135e-12 0)
(0.1902479 2.5274973e-12 0)
(0.1902479 3.028745e-12 0)
(0.1902479 2.6005666e-12 0)
(0.1902479 1.5403341e-12 0)
(0.1902479 1.5337131e-13 0)
(0.1902479 -9.4385833e-13 0)
(0.1902479 -1.7475367e-12 0)
(0.1902479 -2.4270925e-12 0)
(0.1902479 -2.8852523e-12 0)
(0.1902479 -3.0249092e-12 0)
(0.1902479 -2.4584382e-12 0)
(0.1902479 -1.4100842e-12 0)
(0.1902479 -9.6731103e-16 0)
(0.1902479 1.1077899e-12 0)
(0.1902479 1.8644973e-12 0)
(0.1902479 2.2538965e-12 0)
(0.1902479 2.3045013e-12 0)
(0.1902479 2.1639191e-12 0)
(0.1902479 1.998855e-12 0)
(0.1902479 2.0862935e-12 0)
(0.1902479 2.5131866e-12 0)
(0.1902479 2.9482231e-12 0)
(0.1902479 3.0242944e-12 0)
(0.1902479 2.4787241e-12 0)
(0.1902479 1.2749363e-12 0)
(0.1902479 -1.0786018e-13 0)
(0.1902479 -1.2799791e-12 0)
(0.1902479 -1.9085372e-12 0)
(0.1902479 -2.2021288e-12 0)
(0.1902479 -2.245863e-12 0)
(0.1902479 -2.2937927e-12 0)
(0.1902479 -2.2701082e-12 0)
(0.1902479 -2.1764552e-12 0)
(0.1902479 -2.0429635e-12 0)
(0.1902479 -2.1360979e-12 0)
(0.1902479 -2.4582691e-12 0)
(0.1902479 -2.8578501e-12 0)
(0.1902479 -2.9664447e-12 0)
(0.1902479 -2.6061782e-12 0)
(0.1902479 -1.6678534e-12 0)
(0.1902479 -1.8293325e-13 0)
(0.1902479 1.2969849e-12 0)
(0.1902479 2.5018723e-12 0)
(0.1902479 2.9572032e-12 0)
(0.1902479 2.5340467e-12 0)
(0.1902479 1.4392225e-12 0)
(0.1902479 -4.2611049e-14 0)
(0.1902479 -1.1818111e-12 0)
(0.1902479 -1.9222328e-12 0)
(0.1902479 -2.2547777e-12 0)
(0.1902479 -2.2954119e-12 0)
(0.1902479 -2.2492627e-12 0)
(0.1902479 -2.182279e-12 0)
(0.1902479 -2.1900395e-12 0)
(0.1902479 -2.2159385e-12 0)
(0.1902479 -2.282117e-12 0)
(0.1902479 -2.3015373e-12 0)
(0.1902479 -2.312392e-12 0)
(0.1902479 -2.23722e-12 0)
(0.1902479 -2.2144193e-12 0)
(0.1902479 -2.2665791e-12 0)
(0.1902479 -2.3677742e-12 0)
(0.1902479 -2.1875203e-12 0)
(0.1902479 -1.8665234e-12 0)
(0.1902479 -2.0504063e-12 0)
(0.1902479 -2.9629797e-12 0)
(0.1902479 -3.2559975e-12 0)
(0.1902479 -1.6637857e-12 0)
(0.59346672 0.2146733 0)
(0.54593347 0.075998416 0)
(0.39702192 0.039312315 0)
(0.34953974 0.019720578 0)
(0.30792187 0.010726757 0)
(0.28963523 0.0061583989 0)
(0.27651264 0.0034762041 0)
(0.26994405 0.0020291192 0)
(0.26565503 0.0011409975 0)
(0.26342423 0.00065140792 0)
(0.26206335 0.00035633078 0)
(0.26136077 0.00019486991 0)
(0.26095907 0.00010129087 0)
(0.26076048 5.158902e-05 0)
(0.260656 2.4314635e-05 0)
(0.26060945 1.0643152e-05 0)
(0.26058866 3.7602633e-06 0)
(0.26058217 7.1163896e-07 0)
(0.26058122 -5.4234848e-07 0)
(0.26058278 -8.8378884e-07 0)
(0.2605848 -8.6407599e-07 0)
(0.26058673 -7.0512848e-07 0)
(0.26058825 -5.2945416e-07 0)
(0.26058939 -3.7473961e-07 0)
(0.26059018 -2.5550495e-07 0)
(0.26059072 -1.6866626e-07 0)
(0.26059108 -1.0868878e-07 0)
(0.2605913 -6.8455092e-08 0)
(0.26059144 -4.2295877e-08 0)
(0.26059153 -2.5633708e-08 0)
(0.26059159 -1.5259036e-08 0)
(0.26059162 -8.9097438e-09 0)
(0.26059163 -5.0999872e-09 0)
(0.26059165 -2.8547574e-09 0)
(0.26059165 -1.5586102e-09 0)
(0.26059165 -8.2544088e-10 0)
(0.26059166 -4.2011944e-10 0)
(0.26059166 -2.0190381e-10 0)
(0.26059166 -8.8546303e-11 0)
(0.26059166 -3.3439801e-11 0)
(0.26059166 -8.4996566e-12 0)
(0.26059166 1.617107e-12 0)
(0.26059166 5.6845686e-12 0)
(0.26059166 5.7088833e-12 0)
(0.26059166 4.7777691e-12 0)
(0.26059166 3.365286e-12 0)
(0.26059166 3.3917887e-12 0)
(0.26059166 3.2658383e-12 0)
(0.26059166 4.1033158e-12 0)
(0.26059166 3.6643629e-12 0)
(0.26059166 4.7132827e-12 0)
(0.26059166 4.4553477e-12 0)
(0.26059166 4.8001853e-12 0)
(0.26059166 3.9806896e-12 0)
(0.26059166 3.4868318e-12 0)
(0.26059166 2.6551373e-12 0)
(0.26059166 2.2254925e-12 0)
(0.26059166 1.4074977e-12 0)
(0.26059166 2.0978721e-12 0)
(0.26059166 1.2982599e-12 0)
(0.26059166 1.6623936e-12 0)
(0.26059166 1.180469e-12 0)
(0.26059166 1.4030425e-12 0)
(0.26059166 1.2077167e-12 0)
(0.26059166 1.1711019e-12 0)
(0.26059166 9.9812372e-13 0)
(0.26059166 9.0587486e-13 0)
(0.26059166 1.0434974e-12 0)
(0.26059166 1.5289255e-12 0)
(0.26059166 2.1037914e-12 0)
(0.26059166 2.417532e-12 0)
(0.26059166 2.4341092e-12 0)
(0.26059166 1.3708363e-12 0)
(0.26059166 5.786381e-13 0)
(0.26059166 -1.0725557e-12 0)
(0.26059166 -1.6297342e-12 0)
(0.26059166 -2.636333e-12 0)
(0.26059166 -2.4218568e-12 0)
(0.26059166 -2.8840251e-12 0)
(0.26059166 -2.3484743e-12 0)
(0.26059166 -2.8153996e-12 0)
(0.26059166 -2.3306585e-12 0)
(0.26059166 -2.8812792e-12 0)
(0.26059166 -2.3951404e-12 0)
(0.26059166 -2.929849e-12 0)
(0.26059166 -2.4246651e-12 0)
(0.26059166 -2.9490963e-12 0)
(0.26059166 -2.4463661e-12 0)
(0.26059166 -2.9359364e-12 0)