/*--------------------------------*- C++ -*----------------------------------*\
| =========                 |                                                 |
| \\      /  F ield         | OpenFOAM: The Open Source CFD Toolbox           |
|  \\    /   O peration     | Version:  2206                                  |
|   \\  /    A nd           | Website:  www.openfoam.com                      |
|    \\/     M anipulation  |                                                 |
\*---------------------------------------------------------------------------*/
FoamFile
{
    version     2.0;
    format      ascii;
    arch        "LSB;label=32;scalar=64";
    class       surfaceScalarField;
    location    "23";
    object      phi;
}
// * * * * * * * * * * * * * * * * * * * * * * * * * * * * * * * * * * * * * //

dimensions      [0 3 -1 0 0 0 0];

oriented        oriented;

internalField   nonuniform List<scalar> 
29650
(
6.0867648e-05
0.00020579915
3.2718169e-05
2.8149484e-05
2.4599021e-05
8.119167e-06
2.0417849e-05
4.181197e-06
1.8552178e-05
1.8656912e-06
1.7373701e-05
1.1784878e-06
1.6781661e-05
5.920364e-07
1.6412315e-05
3.6933585e-07
1.622082e-05
1.9148183e-07
1.6106685e-05
1.1412624e-07
1.6048258e-05
5.8424504e-08
1.6015474e-05
3.2784373e-08
1.5999541e-05
1.5934939e-08
1.5991376e-05
8.169197e-09
1.5987889e-05
3.4909067e-09
1.598644e-05
1.4521426e-09
1.5986091e-05
3.5239096e-10
1.5986138e-05
-4.636595e-11
1.598635e-05
-2.1060696e-10
1.5986569e-05
-2.2004449e-10
1.5986762e-05
-1.9271024e-10
1.5986908e-05
-1.4659386e-10
1.5987014e-05
-1.0656292e-10
1.5987087e-05
-7.3109506e-11
1.5987136e-05
-4.8927849e-11
1.5987167e-05
-3.163834e-11
1.5987187e-05
-2.0087718e-11
1.59872e-05
-1.244864e-11
1.5987208e-05
-7.5951579e-12
1.5987212e-05
-4.536879e-12
1.5987215e-05
-2.6628092e-12
1.5987216e-05
-1.527092e-12
1.5987217e-05
-8.5890861e-13
1.5987218e-05
-4.7151164e-13
1.5987218e-05
-2.5242386e-13
1.5987218e-05
-1.294443e-13
1.5987218e-05
-6.2722967e-14
1.5987218e-05
-2.729318e-14
1.5987218e-05
-9.7595989e-15
1.5987218e-05
-1.8088612e-15
1.5987218e-05
9.587799e-16
1.5987218e-05
1.5048122e-15
1.5987218e-05
1.9994549e-15
1.5987218e-05
2.7186605e-15
1.5987218e-05
3.0567524e-15
1.5987218e-05
2.2841636e-15
1.5987218e-05
6.9955446e-16
1.5987218e-05
-3.4240393e-16
1.5987218e-05
-6.8901666e-16
1.5987218e-05
-1.0929896e-15
1.5987218e-05
-1.5394372e-15
1.5987218e-05
-2.6268155e-15
1.5987218e-05
-3.4960523e-15
1.5987218e-05
-4.4202394e-15
1.5987218e-05
-4.5698383e-15
1.5987218e-05
-4.063103e-15
1.5987218e-05
-3.1958887e-15
1.5987218e-05
-2.190893e-15
1.5987218e-05
-6.909924e-16
1.5987218e-05
8.4511051e-17
1.5987218e-05
1.133596e-15
1.5987218e-05
1.5076865e-15
1.5987218e-05
2.0510039e-15
1.5987218e-05
1.9639437e-15
1.5987218e-05
2.2548843e-15
1.5987218e-05
1.9573654e-15
1.5987218e-05
2.0695384e-15
1.5987218e-05
1.6558432e-15
1.5987218e-05
1.5674433e-15
1.5987218e-05
1.332894e-15
1.5987218e-05
1.7295697e-15
1.5987218e-05
1.7612041e-15
1.5987218e-05
1.9399319e-15
1.5987218e-05
1.8653156e-15
1.5987218e-05
2.0274075e-15
1.5987218e-05
1.9648515e-15
1.5987218e-05
2.0601813e-15
1.5987218e-05
1.9869164e-15
1.5987218e-05
1.9667677e-15
1.5987218e-05
1.9278055e-15
1.5987218e-05
1.9449418e-15
1.5987218e-05
1.9855091e-15
1.5987218e-05
1.8570376e-15
1.5987218e-05
1.7691192e-15
1.5987218e-05
1.6783925e-15
1.5987218e-05
2.1192726e-15
1.5987218e-05
2.3408124e-15
1.5987218e-05
2.8056031e-15
1.5987218e-05
2.1926689e-15
1.5987218e-05
1.463538e-15
1.5987218e-05
-3.7835513e-17
1.5987218e-05
-6.874925e-16
1.5987218e-05
-1.57321e-15
1.5987218e-05
-1.4865764e-15
1.5987218e-05
-2.0483027e-15
1.5987218e-05
-1.7509722e-15
1.5987218e-05
-2.3724388e-15
1.5987218e-05
-1.8802129e-15
1.5987218e-05
-2.2659286e-15
1.5987218e-05
-1.4824304e-15
1.5987218e-05
-2.2256579e-15
1.5987218e-05
-2.3755702e-15
1.5987218e-05
-3.7232486e-15
1.5987218e-05
-3.092451e-15
1.5987218e-05
-2.4150039e-15
1.5987218e-05
1.0248238e-16
1.5987218e-05
7.567957e-16
1.5987218e-05
1.609508e-15
1.5987218e-05
-3.6699551e-17
1.5987218e-05
-5.1515289e-16
1.5987218e-05
-1.548625e-15
1.5987218e-05
-9.2397701e-16
1.5987218e-05
-1.0858085e-15
1.5987218e-05
-5.2011024e-16
1.5987218e-05
-1.6227136e-15
1.5987218e-05
-1.29548e-15
1.5987218e-05
-2.1295898e-15
1.5987218e-05
-1.6832956e-15
1.5987218e-05
-2.2549293e-15
1.5987218e-05
-1.6488552e-15
1.5987218e-05
-1.8709574e-15
1.5987218e-05
-1.2424208e-15
1.5987218e-05
-1.8721599e-15
1.5987218e-05
-2.011995e-15
1.5987218e-05
-2.9354744e-15
1.5987218e-05
-2.7320385e-15
1.5987218e-05
-2.5074891e-15
1.5987218e-05
-1.1124698e-15
1.5987218e-05
-2.2741319e-16
1.5987218e-05
9.7034801e-16
1.5987218e-05
1.1856967e-15
1.5987218e-05
1.7447314e-15
1.5987218e-05
1.6620922e-15
1.5987218e-05
2.0469191e-15
1.5987218e-05
1.9325877e-15
1.5987218e-05
2.2064364e-15
1.5987218e-05
2.062187e-15
1.5987218e-05
2.2386134e-15
1.5987218e-05
2.101687e-15
1.5987218e-05
2.2123227e-15
1.5987218e-05
2.0975208e-15
1.5987218e-05
2.1606052e-15
1.5987218e-05
2.0730837e-15
1.5987218e-05
2.0854735e-15
1.5987218e-05
2.013811e-15
1.5987218e-05
1.9939897e-15
1.5987218e-05
1.9677748e-15
1.5987218e-05
1.9471677e-15
1.5987218e-05
1.9683114e-15
1.5987218e-05
2.0143126e-15
1.5987218e-05
2.1088927e-15
1.5987218e-05
2.0228853e-15
1.5987218e-05
1.9465523e-15
1.5987218e-05
1.7738718e-15
1.5987218e-05
2.1707394e-15
1.5987218e-05
2.6847949e-15
1.5987218e-05
3.4537477e-15
1.5987218e-05
3.437636e-15
1.5987218e-05
2.8173382e-15
1.5987218e-05
1.2693237e-15
1.5987218e-05
1.4018087e-16
1.5987218e-05
-1.0632868e-15
1.5987218e-05
-1.4614232e-15
1.5987218e-05
-1.8849185e-15
1.5987218e-05
-1.6133255e-15
1.5987218e-05
-1.8774327e-15
1.5987218e-05
-1.6276959e-15
1.5987218e-05
-1.9030964e-15
1.5987218e-05
-1.6283132e-15
1.5987218e-05
-1.8829341e-15
1.5987218e-05
-1.5916048e-15
1.5987218e-05
-1.8640348e-15
1.5987218e-05
-1.5722917e-15
1.5987218e-05
-1.8543795e-15
1.5987218e-05
-1.5642716e-15
1.5987218e-05
-1.8414908e-15
1.5987218e-05
-1.5428785e-15
1.5987218e-05
-1.797392e-15
1.5987218e-05
-1.508069e-15
1.5987218e-05
-1.809429e-15
1.5987218e-05
-1.596156e-15
1.5987218e-05
-1.9310689e-15
1.5987218e-05
-1.6922651e-15
1.5987218e-05
-1.9935893e-15
1.5987218e-05
-1.7868928e-15
1.5987218e-05
-2.08935e-15
1.5987218e-05
-1.897105e-15
1.5987218e-05
-2.1560854e-15
1.5987218e-05
-2.0029686e-15
1.5987218e-05
-2.2463354e-15
1.5987218e-05
-2.1598275e-15
1.5987218e-05
-2.3589225e-15
1.5987218e-05
-2.3197165e-15
1.5987218e-05
-2.4332457e-15
1.5987218e-05
-2.4890128e-15
1.5987218e-05
-2.6085595e-15
1.5987218e-05
-2.700359e-15
1.5987218e-05
-2.4975376e-15
1.5987218e-05
-2.3162924e-15
1.5987218e-05
-2.0680359e-15
1.5987218e-05
-2.3725439e-15
1.5987218e-05
-2.6699738e-15
1.5987218e-05
-3.0402569e-15
1.5987218e-05
-2.5609765e-15
1.5987218e-05
-1.6685849e-15
1.5987218e-05
-1.709089e-16
1.5987218e-05
8.8662024e-16
1.5987218e-05
1.5228906e-15
1.5987218e-05
1.6352483e-15
1.5987218e-05
1.8257916e-15
1.5987218e-05
2.2520225e-15
1.5987218e-05
2.8126329e-15
1.5987218e-05
3.1607696e-15
1.5987218e-05
2.8089196e-15
1.5987218e-05
1.752909e-15
1.5987218e-05
5.1673247e-16
1.5987218e-05
-4.3722733e-16
1.5987218e-05
-7.8405568e-16
1.5987218e-05
-1.0855744e-15
1.5987218e-05
-1.5050314e-15
1.5987218e-05
-2.280652e-15
1.5987218e-05
-2.7963833e-15
1.5987218e-05
-2.7691641e-15
1.5987218e-05
-1.965419e-15
1.5987218e-05
-6.6930988e-16
1.5987218e-05
5.2052985e-16
1.5987218e-05
1.3080022e-15
1.5987218e-05
1.7248605e-15
1.5987218e-05
1.7180303e-15
1.5987218e-05
1.5722287e-15
1.5987218e-05
1.4731576e-15
1.5987218e-05
1.8125411e-15
1.5987218e-05
2.4229037e-15
1.5987218e-05
3.0279336e-15
1.5987218e-05
2.8503119e-15
1.5987218e-05
2.1780689e-15
1.5987218e-05
1.0006419e-15
1.5987218e-05
1.1428526e-17
1.5987218e-05
-7.7127403e-16
1.5987218e-05
-1.5711504e-15
1.5987218e-05
-2.3015561e-15
1.5987218e-05
-2.8480555e-15
1.5987218e-05
-2.654595e-15
1.5987218e-05
-1.8919353e-15
1.5987218e-05
-5.9353869e-16
1.5987218e-05
5.9415628e-16
1.5987218e-05
1.3185255e-15
1.5987218e-05
1.5690762e-15
1.5987218e-05
1.5235671e-15
1.5987218e-05
1.624496e-15
1.5987218e-05
2.0978065e-15
1.5987218e-05
2.7038712e-15
1.5987218e-05
3.0293186e-15
1.5987218e-05
2.6574914e-15
1.5987218e-05
1.6660083e-15
1.5987218e-05
4.1208636e-16
1.5987218e-05
-6.4227235e-16
1.5987218e-05
-1.2482017e-15
1.5987218e-05
-1.6029553e-15
1.5987218e-05
-1.7144095e-15
1.5987218e-05
-1.8469283e-15
1.5987218e-05
-1.9187221e-15
1.5987218e-05
-1.9989997e-15
1.5987218e-05
-1.8557568e-15
1.5987218e-05
-1.6614752e-15
1.5987218e-05
-1.5363846e-15
1.5987218e-05
-1.8320651e-15
1.5987218e-05
-2.3196266e-15
1.5987218e-05
-2.7096912e-15
1.5987218e-05
-2.6433186e-15
1.5987218e-05
-2.104826e-15
1.5987218e-05
-1.2973449e-15
1.5987218e-05
-1.8111465e-16
1.5987218e-05
8.497009e-16
1.5987218e-05
1.864755e-15
1.5987218e-05
2.3847095e-15
1.5987218e-05
2.2380075e-15
1.5987218e-05
1.4442553e-15
1.5987218e-05
2.8083091e-16
1.5987218e-05
-6.9653982e-16
1.5987218e-05
-1.321112e-15
1.5987218e-05
-1.686873e-15
1.5987218e-05
-1.8527696e-15
1.5987218e-05
-1.9273785e-15
1.5987218e-05
-1.9656423e-15
1.5987218e-05
-1.9484015e-15
1.5987218e-05
-1.9763736e-15
1.5987218e-05
-1.9715109e-15
1.5987218e-05
-1.9807765e-15
1.5987218e-05
-1.9284669e-15
1.5987218e-05
-1.8635817e-15
1.5987218e-05
-1.7845179e-15
1.5987218e-05
-1.8767896e-15
1.5987218e-05
-1.9983764e-15
1.5987218e-05
-1.8774427e-15
1.5987218e-05
-1.3743681e-15
1.5987218e-05
-1.4072566e-15
1.5987218e-05
-2.371889e-15
1.5987218e-05
-3.0365599e-15
-1.6133262e-15
0.00014027132
0.00033219462
9.2549243e-05
7.5871563e-05
7.0338072e-05
3.0330357e-05
5.9620314e-05
1.4898981e-05
5.4019643e-05
7.4663834e-06
5.0795344e-05
4.4027967e-06
4.901105e-05
2.376327e-06
4.7964745e-05
1.415629e-06
4.7384384e-05
7.7182974e-07
4.7052233e-05
4.4626801e-07
4.6872682e-05
2.3797237e-07
4.677453e-05
1.3093647e-07
4.6724186e-05
6.6281106e-08
4.6698685e-05
3.3674236e-08
4.6686924e-05
1.5255068e-08
4.6681892e-05
6.4875108e-09
4.6680252e-05
1.9957794e-09
4.6680058e-05
1.4902443e-10
4.6680445e-05
-5.9682051e-10
4.6680961e-05
-7.3672058e-10
4.6681443e-05
-6.7451814e-10
4.6681826e-05
-5.3035074e-10
4.668211e-05
-3.9096017e-10
4.6682309e-05
-2.7234034e-10
4.6682444e-05
-1.8377512e-10
4.6682532e-05
-1.2004784e-10
4.6682589e-05
-7.6742537e-11
4.6682624e-05
-4.7941903e-11
4.6682646e-05
-2.9427064e-11
4.6682659e-05
-1.77056e-11
4.6682667e-05
-1.046333e-11
4.6682672e-05
-6.0557489e-12
4.6682674e-05
-3.4375375e-12
4.6682676e-05
-1.9073543e-12
4.6682676e-05
-1.0325236e-12
4.6682677e-05
-5.3938035e-13
4.6682677e-05
-2.6851612e-13
4.6682677e-05
-1.2411878e-13
4.6682677e-05
-5.0554131e-14
4.6682677e-05
-1.5615827e-14
4.6682677e-05
-1.0617818e-15
4.6682677e-05
3.4770536e-15
4.6682677e-05
5.7858102e-15
4.6682677e-05
7.0960357e-15
4.6682677e-05
7.775275e-15
4.6682677e-05
5.8874106e-15
4.6682677e-05
2.4432875e-15
4.6682677e-05
-3.6496456e-16
4.6682677e-05
-6.7452354e-16
4.6682677e-05
-2.2863467e-15
4.6682677e-05
-2.7161461e-15
4.6682677e-05
-5.3459472e-15
4.6682677e-05
-6.4996853e-15
4.6682677e-05
-8.503138e-15
4.6682677e-05
-8.6315308e-15
4.6682677e-05
-7.8792466e-15
4.6682677e-05
-6.1143247e-15
4.6682677e-05
-4.9033396e-15
4.6682677e-05
-1.1422348e-15
4.6682677e-05
-5.7330867e-16
4.6682677e-05
2.3847938e-15
4.6682677e-05
2.4493498e-15
4.6682677e-05
4.2584803e-15
4.6682677e-05
3.7697238e-15
4.6682677e-05
4.8542759e-15
4.6682677e-05
4.2701408e-15
4.6682677e-05
4.6147736e-15
4.6682677e-05
3.870527e-15
4.6682677e-05
3.750828e-15
4.6682677e-05
2.6778547e-15
4.6682677e-05
4.0859796e-15
4.6682677e-05
3.1120742e-15
4.6682677e-05
4.3269982e-15
4.6682677e-05
3.4171327e-15
4.6682677e-05
4.5346698e-15
4.6682677e-05
3.7255058e-15
4.6682677e-05
4.662498e-15
4.6682677e-05
3.8116802e-15
4.6682677e-05
4.4970994e-15
4.6682677e-05
3.6747916e-15
4.6682677e-05
4.4488112e-15
4.6682677e-05
3.8376265e-15
4.6682677e-05
4.2881556e-15
4.6682677e-05
3.4290587e-15
4.6682677e-05
3.9157762e-15
4.6682677e-05
4.0087219e-15
4.6682677e-05
5.2328838e-15
4.6682677e-05
5.4948712e-15
4.6682677e-05
4.9598578e-15
4.6682677e-05
2.9916664e-15
4.6682677e-05
4.7295515e-16
4.6682677e-05
-1.3021357e-15
4.6682677e-05
-2.5139815e-15
4.6682677e-05
-2.9260922e-15
4.6682677e-05
-3.4604349e-15
4.6682677e-05
-3.4764086e-15
4.6682677e-05
-4.1406424e-15
4.6682677e-05
-3.8066664e-15
4.6682677e-05
-3.9667125e-15
4.6682677e-05
-3.0257745e-15
4.6682677e-05
-3.852104e-15
4.6682677e-05
-4.6348718e-15
4.6682677e-05
-6.8886744e-15
4.6682677e-05
-6.3094011e-15
4.6682677e-05
-4.4570013e-15
4.6682677e-05
-6.8699653e-17
4.6682677e-05
2.0390132e-15
4.6682677e-05
3.2299011e-15
4.6682677e-05
3.504715e-16
4.6682677e-05
-9.6150287e-16
4.6682677e-05
-2.7317739e-15
4.6682677e-05
-1.9203441e-15
4.6682677e-05
-2.1088945e-15
4.6682677e-05
-1.4815677e-15
4.6682677e-05
-3.0001383e-15
4.6682677e-05
-2.8486502e-15
4.6682677e-05
-3.9558203e-15
4.6682677e-05
-3.4865823e-15
4.6682677e-05
-4.2248982e-15
4.6682677e-05
-3.4151607e-15
4.6682677e-05
-3.5172155e-15
4.6682677e-05
-2.575963e-15
4.6682677e-05
-3.5035429e-15
4.6682677e-05
-3.9975012e-15
4.6682677e-05
-5.7510276e-15
4.6682677e-05
-5.636708e-15
4.6682677e-05
-5.0075213e-15
4.6682677e-05
-2.5153952e-15
4.6682677e-05
-4.9953284e-16
4.6682677e-05
1.6086814e-15
4.6682677e-05
2.2731195e-15
4.6682677e-05
3.1518229e-15
4.6682677e-05
3.1661608e-15
4.6682677e-05
3.762137e-15
4.6682677e-05
3.6919821e-15
4.6682677e-05
4.0988932e-15
4.6682677e-05
3.9365564e-15
4.6682677e-05
4.176086e-15
4.6682677e-05
4.0048187e-15
4.6682677e-05
4.138954e-15
4.6682677e-05
3.9872659e-15
4.6682677e-05
4.0532361e-15
4.6682677e-05
3.932766e-15
4.6682677e-05
3.922103e-15
4.6682677e-05
3.8093386e-15
4.6682677e-05
3.7603789e-15
4.6682677e-05
3.7200715e-15
4.6682677e-05
3.6830275e-15
4.6682677e-05
3.7065303e-15
4.6682677e-05
3.7897313e-15
4.6682677e-05
3.9492592e-15
4.6682677e-05
3.8697242e-15
4.6682677e-05
3.6421573e-15
4.6682677e-05
3.3632559e-15
4.6682677e-05
4.0278402e-15
4.6682677e-05
5.0701401e-15
4.6682677e-05
6.5954976e-15
4.6682677e-05
6.7388467e-15
4.6682677e-05
5.4526719e-15
4.6682677e-05
2.6298318e-15
4.6682677e-05
2.1368787e-16
4.6682677e-05
-1.9426229e-15
4.6682677e-05
-2.7832023e-15
4.6682677e-05
-3.41709e-15
4.6682677e-05
-3.20715e-15
4.6682677e-05
-3.5336892e-15
4.6682677e-05
-3.3033467e-15
4.6682677e-05
-3.6374297e-15
4.6682677e-05
-3.3149855e-15
4.6682677e-05
-3.5878025e-15
4.6682677e-05
-3.2370674e-15
4.6682677e-05
-3.5385953e-15
4.6682677e-05
-3.1932694e-15
4.6682677e-05
-3.514543e-15
4.6682677e-05
-3.1741265e-15
4.6682677e-05
-3.493146e-15
4.6682677e-05
-3.1392523e-15
4.6682677e-05
-3.4266671e-15
4.6682677e-05
-3.0606325e-15
4.6682677e-05
-3.4629412e-15
4.6682677e-05
-3.1973235e-15
4.6682677e-05
-3.6806752e-15
4.6682677e-05
-3.3531964e-15
4.6682677e-05
-3.7576552e-15
4.6682677e-05
-3.4999341e-15
4.6682677e-05
-3.902304e-15
4.6682677e-05
-3.6871032e-15
4.6682677e-05
-4.0028983e-15
4.6682677e-05
-3.8358637e-15
4.6682677e-05
-4.1542045e-15
4.6682677e-05
-4.0791074e-15
4.6682677e-05
-4.3677967e-15
4.6682677e-05
-4.3242189e-15
4.6682677e-05
-4.4747323e-15
4.6682677e-05
-4.5700664e-15
4.6682677e-05
-4.7689946e-15
4.6682677e-05
-4.9487302e-15
4.6682677e-05
-4.6183778e-15
4.6682677e-05
-4.203718e-15
4.6682677e-05
-3.7916601e-15
4.6682677e-05
-4.3779726e-15
4.6682677e-05
-5.0985349e-15
4.6682677e-05
-5.934538e-15
4.6682677e-05
-5.2015128e-15
4.6682677e-05
-3.3831355e-15
4.6682677e-05
-5.316786e-16
4.6682677e-05
1.6418828e-15
4.6682677e-05
2.8818667e-15
4.6682677e-05
3.0708584e-15
4.6682677e-05
3.3867084e-15
4.6682677e-05
4.1656166e-15
4.6682677e-05
5.3867929e-15
4.6682677e-05
6.1389877e-15
4.6682677e-05
5.564637e-15
4.6682677e-05
3.5347407e-15
4.6682677e-05
1.0403092e-15
4.6682677e-05
-8.2516249e-16
4.6682677e-05
-1.553413e-15
4.6682677e-05
-2.0070899e-15
4.6682677e-05
-2.8576947e-15
4.6682677e-05
-4.3556908e-15
4.6682677e-05
-5.5066923e-15
4.6682677e-05
-5.5554431e-15
4.6682677e-05
-3.9946126e-15
4.6682677e-05
-1.4204382e-15
4.6682677e-05
9.1429412e-16
4.6682677e-05
2.51504e-15
4.6682677e-05
3.3038758e-15
4.6682677e-05
3.3305502e-15
4.6682677e-05
3.0391622e-15
4.6682677e-05
2.8109213e-15
4.6682677e-05
3.3828091e-15
4.6682677e-05
4.7274536e-15
4.6682677e-05
5.8751018e-15
4.6682677e-05
5.7166075e-15
4.6682677e-05
4.3514588e-15
4.6682677e-05
1.9858714e-15
4.6682677e-05
6.7862879e-17
4.6682677e-05
-1.4963299e-15
4.6682677e-05
-2.9226836e-15
4.6682677e-05
-4.5127848e-15
4.6682677e-05
-5.5689542e-15
4.6682677e-05
-5.3245893e-15
4.6682677e-05
-3.8624562e-15
4.6682677e-05
-1.2525588e-15
4.6682677e-05
1.0303388e-15
4.6682677e-05
2.5701332e-15
4.6682677e-05
3.0466684e-15
4.6682677e-05
2.908404e-15
4.6682677e-05
3.0561252e-15
4.6682677e-05
3.9732205e-15
4.6682677e-05
5.1792331e-15
4.6682677e-05
5.9333262e-15
4.6682677e-05
5.3085344e-15
4.6682677e-05
3.319577e-15
4.6682677e-05
8.6082682e-16
4.6682677e-05
-1.2169599e-15
4.6682677e-05
-2.4502961e-15
4.6682677e-05
-3.0971306e-15
4.6682677e-05
-3.3538098e-15
4.6682677e-05
-3.5608226e-15
4.6682677e-05
-3.7626669e-15
4.6682677e-05
-3.9154304e-15
4.6682677e-05
-3.708488e-15
4.6682677e-05
-3.2569274e-15
4.6682677e-05
-3.0274405e-15
4.6682677e-05
-3.5089481e-15
4.6682677e-05
-4.53829e-15
4.6682677e-05
-5.3570344e-15
4.6682677e-05
-5.2704419e-15
4.6682677e-05
-4.201964e-15
4.6682677e-05
-2.5829178e-15
4.6682677e-05
-4.5097203e-16
4.6682677e-05
1.5632758e-15
4.6682677e-05
3.6635046e-15
4.6682677e-05
4.7593197e-15
4.6682677e-05
4.5773448e-15
4.6682677e-05
3.0287638e-15
4.6682677e-05
6.7262547e-16
4.6682677e-05
-1.1889706e-15
4.6682677e-05
-2.5198536e-15
4.6682677e-05
-3.1857215e-15
4.6682677e-05
-3.5714394e-15
4.6682677e-05
-3.7155485e-15
4.6682677e-05
-3.811773e-15
4.6682677e-05
-3.8131478e-15
4.6682677e-05
-3.8719067e-15
4.6682677e-05
-3.8389942e-15
4.6682677e-05
-3.8818032e-15
4.6682677e-05
-3.7627286e-15
4.6682677e-05
-3.6529202e-15
4.6682677e-05
-3.4689593e-15
4.6682677e-05
-3.6436686e-15
4.6682677e-05
-3.8933163e-15
4.6682677e-05
-3.7402275e-15
4.6682677e-05
-2.7516968e-15
4.6682677e-05
-2.5998873e-15
4.6682677e-05
-4.3826948e-15
4.6682677e-05
-6.1010041e-15
-3.5667974e-15
0.00019469214
0.00040416928
0.00014360962
0.00012695409
0.00011230147
6.16385e-05
9.6619294e-05
3.058116e-05
8.7762221e-05
1.6323457e-05
8.2755406e-05
9.4096141e-06
7.9871701e-05
5.2600365e-06
7.8206034e-05
3.0813004e-06
7.7256668e-05
1.7211956e-06
7.6718195e-05
9.8473953e-07
7.6420462e-05
5.357012e-07
7.6258218e-05
2.931775e-07
7.6172993e-05
1.5150364e-07
7.61296e-05
7.7065277e-08
7.6108851e-05
3.6002487e-08
7.6099695e-05
1.5642296e-08
7.6096324e-05
5.3664319e-09
7.6095587e-05
8.860211e-10
7.6095937e-05
-9.4562909e-10
7.6096611e-05
-1.410925e-09
7.609729e-05
-1.3535607e-09
7.6097854e-05
-1.0936569e-09
7.609828e-05
-8.1702881e-10
7.6098584e-05
-5.7583898e-10
7.6098791e-05
-3.9144591e-10
7.6098929e-05
-2.576361e-10
7.6099018e-05
-1.6561858e-10
7.6099074e-05
-1.0406518e-10
7.6099108e-05
-6.4172191e-11
7.609913e-05
-3.8810621e-11
7.6099142e-05
-2.3052814e-11
7.609915e-05
-1.3425607e-11
7.6099154e-05
-7.6676476e-12
7.6099156e-05
-4.2829176e-12
7.6099157e-05
-2.3342663e-12
7.6099158e-05
-1.2319268e-12
7.6099158e-05
-6.2409071e-13
7.6099159e-05
-2.9741436e-13
7.6099159e-05
-1.2891525e-13
7.6099159e-05
-4.6508899e-14
7.6099159e-05
-9.7926424e-15
7.6099159e-05
4.4168456e-15
7.6099159e-05
1.0073463e-14
7.6099159e-05
1.1986735e-14
7.6099159e-05
1.1604438e-14
7.6099159e-05
8.5887613e-15
7.6099159e-05
4.1211765e-15
7.6099159e-05
8.4575404e-16
7.6099159e-05
-2.7229847e-16
7.6099159e-05
-1.9436121e-15
7.6099159e-05
-2.9665881e-15
7.6099159e-05
-5.8921345e-15
7.6099159e-05
-7.7885503e-15
7.6099159e-05
-9.9502694e-15
7.6099159e-05
-9.9448209e-15
7.6099159e-05
-8.616559e-15
7.6099159e-05
-6.2803911e-15
7.6099159e-05
-4.2319031e-15
7.6099159e-05
-6.7384108e-16
7.6099159e-05
3.6244418e-16
7.6099159e-05
2.995054e-15
7.6099159e-05
3.3417122e-15
7.6099159e-05
4.8919723e-15
7.6099159e-05
4.5035673e-15
7.6099159e-05
5.384867e-15
7.6099159e-05
4.7504769e-15
7.6099159e-05
5.2181695e-15
7.6099159e-05
4.5402043e-15
7.6099159e-05
4.593718e-15
7.6099159e-05
3.7966027e-15
7.6099159e-05
4.8215756e-15
7.6099159e-05
4.308558e-15
7.6099159e-05
5.1003224e-15
7.6099159e-05
4.5911137e-15
7.6099159e-05
5.3559103e-15
7.6099159e-05
4.9152569e-15
7.6099159e-05
5.5071853e-15
7.6099159e-05
5.0489923e-15
7.6099159e-05
5.374187e-15
7.6099159e-05
4.9324965e-15
7.6099159e-05
5.239147e-15
7.6099159e-05
4.9285132e-15
7.6099159e-05
4.8510461e-15
7.6099159e-05
4.4493322e-15
7.6099159e-05
4.6104918e-15
7.6099159e-05
5.2385793e-15
7.6099159e-05
5.8274023e-15
7.6099159e-05
6.2288641e-15
7.6099159e-05
4.7076602e-15
7.6099159e-05
2.8349923e-15
7.6099159e-05
-3.2773887e-16
7.6099159e-05
-1.8369076e-15
7.6099159e-05
-3.5092271e-15
7.6099159e-05
-3.4314513e-15
7.6099159e-05
-4.3916014e-15
7.6099159e-05
-3.8730335e-15
7.6099159e-05
-4.9861651e-15
7.6099159e-05
-4.1004714e-15
7.6099159e-05
-4.8078744e-15
7.6099159e-05
-3.4446451e-15
7.6099159e-05
-4.9639052e-15
7.6099159e-05
-5.3194654e-15
7.6099159e-05
-7.7301863e-15
7.6099159e-05
-6.133073e-15
7.6099159e-05
-4.2874255e-15
7.6099159e-05
7.4113267e-16
7.6099159e-05
1.9762488e-15
7.6099159e-05
3.2082921e-15
7.6099159e-05
-6.0918722e-16
7.6099159e-05
-1.9402968e-15
7.6099159e-05
-4.28472e-15
7.6099159e-05
-3.1300702e-15
7.6099159e-05
-3.314945e-15
7.6099159e-05
-1.9859938e-15
7.6099159e-05
-3.8801402e-15
7.6099159e-05
-3.2356476e-15
7.6099159e-05
-4.8673619e-15
7.6099159e-05
-4.0861204e-15
7.6099159e-05
-5.2231265e-15
7.6099159e-05
-4.0394582e-15
7.6099159e-05
-4.4404463e-15
7.6099159e-05
-3.2692167e-15
7.6099159e-05
-4.6175428e-15
7.6099159e-05
-4.9288115e-15
7.6099159e-05
-6.6848839e-15
7.6099159e-05
-5.9996854e-15
7.6099159e-05
-5.137533e-15
7.6099159e-05
-2.1323743e-15
7.6099159e-05
-1.5605708e-16
7.6099159e-05
2.2667695e-15
7.6099159e-05
2.752199e-15
7.6099159e-05
3.8131962e-15
7.6099159e-05
3.6236857e-15
7.6099159e-05
4.3517451e-15
7.6099159e-05
4.1396741e-15
7.6099159e-05
4.6900455e-15
7.6099159e-05
4.4355722e-15
7.6099159e-05
4.7927812e-15
7.6099159e-05
4.5341136e-15
7.6099159e-05
4.7416524e-15
7.6099159e-05
4.512798e-15
7.6099159e-05
4.615229e-15
7.6099159e-05
4.4307846e-15
7.6099159e-05
4.4278469e-15
7.6099159e-05
4.2795563e-15
7.6099159e-05
4.2343825e-15
7.6099159e-05
4.1902701e-15
7.6099159e-05
4.1568662e-15
7.6099159e-05
4.2139556e-15
7.6099159e-05
4.3221359e-15
7.6099159e-05
4.5174015e-15
7.6099159e-05
4.3657664e-15
7.6099159e-05
4.2634039e-15
7.6099159e-05
4.0693352e-15
7.6099159e-05
5.0313699e-15
7.6099159e-05
6.10435e-15
7.6099159e-05
7.4875823e-15
7.6099159e-05
7.0811421e-15
7.6099159e-05
5.4524222e-15
7.6099159e-05
2.1883078e-15
7.6099159e-05
-1.9267453e-16
7.6099159e-05
-2.5825177e-15
7.6099159e-05
-3.3577614e-15
7.6099159e-05
-4.1708358e-15
7.6099159e-05
-3.6994248e-15
7.6099159e-05
-4.1998952e-15
7.6099159e-05
-3.7439814e-15
7.6099159e-05
-4.2749002e-15
7.6099159e-05
-3.7614407e-15
7.6099159e-05
-4.2392248e-15
7.6099159e-05
-3.678894e-15
7.6099159e-05
-4.1778818e-15
7.6099159e-05
-3.6137775e-15
7.6099159e-05
-4.1303615e-15
7.6099159e-05
-3.5696537e-15
7.6099159e-05
-4.078712e-15
7.6099159e-05
-3.5002349e-15
7.6099159e-05
-3.9669135e-15
7.6099159e-05
-3.4001776e-15
7.6099159e-05
-3.9805928e-15
7.6099159e-05
-3.5474966e-15
7.6099159e-05
-4.2018631e-15
7.6099159e-05
-3.7118545e-15
7.6099159e-05
-4.3077102e-15
7.6099159e-05
-3.907988e-15
7.6099159e-05
-4.506444e-15
7.6099159e-05
-4.1526898e-15
7.6099159e-05
-4.6642901e-15
7.6099159e-05
-4.3976351e-15
7.6099159e-05
-4.8693753e-15
7.6099159e-05
-4.7014863e-15
7.6099159e-05
-5.0733076e-15
7.6099159e-05
-4.9726816e-15
7.6099159e-05
-5.1720083e-15
7.6099159e-05
-5.2642824e-15
7.6099159e-05
-5.4624136e-15
7.6099159e-05
-5.6016609e-15
7.6099159e-05
-5.1889227e-15
7.6099159e-05
-4.8814427e-15
7.6099159e-05
-4.5462879e-15
7.6099159e-05
-5.3218964e-15
7.6099159e-05
-5.8809171e-15
7.6099159e-05
-6.4540335e-15
7.6099159e-05
-5.1876973e-15
7.6099159e-05
-3.0880474e-15
7.6099159e-05
5.1448787e-17
7.6099159e-05
2.2139694e-15
7.6099159e-05
3.4925184e-15
7.6099159e-05
3.724813e-15
7.6099159e-05
4.1878512e-15
7.6099159e-05
5.0692279e-15
7.6099159e-05
6.1362132e-15
7.6099159e-05
6.5787051e-15
7.6099159e-05
5.5002671e-15
7.6099159e-05
3.0641497e-15
7.6099159e-05
3.9251512e-16
7.6099159e-05
-1.616302e-15
7.6099159e-05
-2.4115593e-15
7.6099159e-05
-3.0869993e-15
7.6099159e-05
-4.0242877e-15
7.6099159e-05
-5.5017578e-15
7.6099159e-05
-6.3073565e-15
7.6099159e-05
-5.8887605e-15
7.6099159e-05
-3.8720783e-15
7.6099159e-05
-1.0284635e-15
7.6099159e-05
1.4858168e-15
7.6099159e-05
3.1634932e-15
7.6099159e-05
3.9755636e-15
7.6099159e-05
3.9198056e-15
7.6099159e-05
3.6344134e-15
7.6099159e-05
3.536648e-15
7.6099159e-05
4.3334007e-15
7.6099159e-05
5.6282563e-15
7.6099159e-05
6.6296817e-15
7.6099159e-05
5.9606885e-15
7.6099159e-05
4.2521123e-15
7.6099159e-05
1.6630338e-15
7.6099159e-05
-4.6531172e-16
7.6099159e-05
-2.2207739e-15
7.6099159e-05
-3.8706848e-15
7.6099159e-05
-5.2952704e-15
7.6099159e-05
-6.0933289e-15
7.6099159e-05
-5.3374856e-15
7.6099159e-05
-3.4760233e-15
7.6099159e-05
-6.4834372e-16
7.6099159e-05
1.7887681e-15
7.6099159e-05
3.2786928e-15
7.6099159e-05
3.7479601e-15
7.6099159e-05
3.6473693e-15
7.6099159e-05
3.9230006e-15
7.6099159e-05
4.9304097e-15
7.6099159e-05
6.0348488e-15
7.6099159e-05
6.4187178e-15
7.6099159e-05
5.3466876e-15
7.6099159e-05
3.0023349e-15
7.6099159e-05
3.1965464e-16
7.6099159e-05
-1.9020137e-15
7.6099159e-05
-3.1654266e-15
7.6099159e-05
-3.8476069e-15
7.6099159e-05
-4.0426999e-15
7.6099159e-05
-4.2648379e-15
7.6099159e-05
-4.4127125e-15
7.6099159e-05
-4.5571365e-15
7.6099159e-05
-4.2760014e-15
7.6099159e-05
-3.9005678e-15
7.6099159e-05
-3.7710887e-15
7.6099159e-05
-4.4332001e-15
7.6099159e-05
-5.4028392e-15
7.6099159e-05
-5.9895377e-15
7.6099159e-05
-5.5384041e-15
7.6099159e-05
-4.0962189e-15
7.6099159e-05
-2.198459e-15
7.6099159e-05
2.9147771e-16
7.6099159e-05
2.477081e-15
7.6099159e-05
4.5022096e-15
7.6099159e-05
5.2690021e-15
7.6099159e-05
4.5666354e-15
7.6099159e-05
2.6275487e-15
7.6099159e-05
4.1582661e-17
7.6099159e-05
-1.9886261e-15
7.6099159e-05
-3.3261267e-15
7.6099159e-05
-4.0054881e-15
7.6099159e-05
-4.2876238e-15
7.6099159e-05
-4.3718082e-15
7.6099159e-05
-4.4355505e-15
7.6099159e-05
-4.4131484e-15
7.6099159e-05
-4.4982665e-15
7.6099159e-05
-4.486208e-15
7.6099159e-05
-4.5217546e-15
7.6099159e-05
-4.3892845e-15
7.6099159e-05
-4.2620932e-15
7.6099159e-05
-4.0942186e-15
7.6099159e-05
-4.3083938e-15
7.6099159e-05
-4.5143539e-15
7.6099159e-05
-4.2266627e-15
7.6099159e-05
-3.2509555e-15
7.6099159e-05
-3.4994768e-15
7.6099159e-05
-5.4669867e-15
7.6099159e-05
-6.5478329e-15
-3.3245663e-15
0.00023312986
0.00043770622
0.00018548527
0.00017459869
0.00015018421
9.6939552e-05
0.0001310242
4.9741161e-05
0.00011965162
2.7696029e-05
0.0001131446
1.5916638e-05
0.00010931814
9.0865061e-06
0.00010710183
5.2976201e-06
0.0001058215
3.0015373e-06
0.00010509347
1.7127663e-06
0.00010468612
9.4304151e-07
0.00010446306
5.162293e-07
0.00010434425
2.7031169e-07
0.00010428311
1.3819524e-07
0.00010425319
6.5917537e-08
0.00010423959
2.9238614e-08
0.0001042342
1.0756418e-08
0.00010423268
2.407696e-09
0.00010423281
-1.0793542e-09
0.00010423352
-2.1160899e-09
0.00010423431
-2.144727e-09
0.000104235
-1.7802052e-09
0.00010423553
-1.3487954e-09
0.00010423592
-9.6092859e-10
0.00010423618
-6.5797626e-10
0.00010423636
-4.3591383e-10
0.00010423648
-2.8165786e-10
0.00010423655
-1.7785004e-10
0.0001042366
-1.101328e-10
0.00010423662
-6.6896897e-11
0.00010423664
-3.9906106e-11
0.00010423665
-2.3352529e-11
0.00010423666
-1.3402282e-11
0.00010423666
-7.5254988e-12
0.00010423666
-4.1254035e-12
0.00010423666
-2.1949048e-12
0.00010423666
-1.1249555e-12
0.00010423666
-5.4670253e-13
0.00010423666
-2.4523028e-13
0.00010423666
-9.5330337e-14
0.00010423666
-2.6136848e-14
0.00010423666
2.7301688e-15
0.00010423666
1.4520697e-14
0.00010423666
1.7420324e-14
0.00010423666
1.5988931e-14
0.00010423666
1.1473883e-14
0.00010423666
6.0980644e-15
0.00010423666
2.0094965e-15
0.00010423666
9.4710826e-16
0.00010423666
-1.344195e-15
0.00010423666
-1.8668444e-15
0.00010423666
-5.4311468e-15
0.00010423666
-7.254129e-15
0.00010423666
-9.7375675e-15
0.00010423666
-9.2262108e-15
0.00010423666
-7.7415163e-15
0.00010423666
-4.886774e-15
0.00010423666
-3.1615291e-15
0.00010423666
1.2592772e-15
0.00010423666
1.3420804e-15
0.00010423666
4.5214052e-15
0.00010423666
4.2050778e-15
0.00010423666
6.2947143e-15
0.00010423666
5.4766582e-15
0.00010423666
6.7523015e-15
0.00010423666
5.7480695e-15
0.00010423666
6.4122947e-15
0.00010423666
5.580786e-15
0.00010423666
5.8481887e-15
0.00010423666
4.5070752e-15
0.00010423666
6.1678734e-15
0.00010423666
4.8210892e-15
0.00010423666
6.3219124e-15
0.00010423666
5.156092e-15
0.00010423666
6.5637666e-15
0.00010423666
5.4859693e-15
0.00010423666
6.7108677e-15
0.00010423666
5.7013711e-15
0.00010423666
6.6663998e-15
0.00010423666
5.6319187e-15
0.00010423666
6.3807161e-15
0.00010423666
5.3348033e-15
0.00010423666
5.6263049e-15
0.00010423666
4.8269101e-15
0.00010423666
5.6324685e-15
0.00010423666
5.7641921e-15
0.00010423666
6.4140658e-15
0.00010423666
5.6809072e-15
0.00010423666
3.7869523e-15
0.00010423666
1.3266422e-15
0.00010423666
-1.6193268e-15
0.00010423666
-3.1267694e-15
0.00010423666
-4.4515718e-15
0.00010423666
-4.301437e-15
0.00010423666
-4.9833584e-15
0.00010423666
-4.3901867e-15
0.00010423666
-5.2861484e-15
0.00010423666
-4.4051443e-15
0.00010423666
-5.1061735e-15
0.00010423666
-4.0986069e-15
0.00010423666
-5.8412268e-15
0.00010423666
-5.9630594e-15
0.00010423666
-7.6159144e-15
0.00010423666
-5.0091681e-15
0.00010423666
-2.5901008e-15
0.00010423666
1.7716367e-15
0.00010423666
2.1584881e-15
0.00010423666
2.6971463e-15
0.00010423666
-1.6462115e-15
0.00010423666
-3.0981803e-15
0.00010423666
-5.7583574e-15
0.00010423666
-4.5719602e-15
0.00010423666
-4.5491902e-15
0.00010423666
-2.7783513e-15
0.00010423666
-4.4360398e-15
0.00010423666
-3.6703448e-15
0.00010423666
-5.3815086e-15
0.00010423666
-4.6723595e-15
0.00010423666
-5.8954107e-15
0.00010423666
-4.639975e-15
0.00010423666
-5.1108958e-15
0.00010423666
-4.0614993e-15
0.00010423666
-5.6323809e-15
0.00010423666
-5.7222067e-15
0.00010423666