/*--------------------------------*- C++ -*----------------------------------*\
| =========                 |                                                 |
| \\      /  F ield         | OpenFOAM: The Open Source CFD Toolbox           |
|  \\    /   O peration     | Version:  2206                                  |
|   \\  /    A nd           | Website:  www.openfoam.com                      |
|    \\/     M anipulation  |                                                 |
\*---------------------------------------------------------------------------*/
FoamFile
{
    version     2.0;
    format      ascii;
    arch        "LSB;label=32;scalar=64";
    class       volVectorField;
    location    "23";
    object      U;
}
// * * * * * * * * * * * * * * * * * * * * * * * * * * * * * * * * * * * * * //

dimensions      [0 1 -1 0 0 0 0];

internalField   nonuniform List<vector> 
15000
(
(0.15962853 0.053997676 0)
(0.11557193 0.0064916413 0)
(0.06425136 0.0014144243 0)
(0.055918598 0.00074960607 0)
(0.047595817 0.0002882733 0)
(0.0447088 0.00019884584 0)
(0.042412496 9.0522267e-05 0)
(0.041406638 6.0126913e-05 0)
(0.040707476 2.8978521e-05 0)
(0.040376989 1.8019756e-05 0)
(0.040167797 8.6629852e-06 0)
(0.040068659 4.9968754e-06 0)
(0.040011053 2.2687279e-06 0)
(0.039985308 1.1748412e-06 0)
(0.039971973 4.4767422e-07 0)
(0.039967049 1.7476756e-07 0)
(0.03996518 1.4752129e-08 0)
(0.039965128 -2.982878e-08 0)
(0.039965544 -4.8566078e-08 0)
(0.039966152 -4.3295123e-08 0)
(0.03996668 -3.5858083e-08 0)
(0.039967111 -2.6148584e-08 0)
(0.039967422 -1.8623625e-08 0)
(0.039967642 -1.2507291e-08 0)
(0.03996779 -8.2642372e-09 0)
(0.039967887 -5.2644091e-09 0)
(0.039967949 -3.3067737e-09 0)
(0.039967988 -2.0241338e-09 0)
(0.039968012 -1.2230784e-09 0)
(0.039968026 -7.2219185e-10 0)
(0.039968035 -4.1908015e-10 0)
(0.03996804 -2.3674511e-10 0)
(0.039968042 -1.3113052e-10 0)
(0.039968044 -7.0703768e-11 0)
(0.039968045 -3.7133499e-11 0)
(0.039968045 -1.8434705e-11 0)
(0.039968045 -8.459969e-12 0)
(0.039968046 -3.2318285e-12 0)
(0.039968046 -7.6376989e-13 0)
(0.039968046 2.5135969e-13 0)
(0.039968046 4.7151286e-13 0)
(0.039968046 3.9315267e-13 0)
(0.039968046 4.4664031e-13 0)
(0.039968046 6.2790296e-13 0)
(0.039968046 7.4334605e-13 0)
(0.039968046 5.6011008e-13 0)
(0.039968046 1.5388172e-13 0)
(0.039968046 -1.1911099e-13 0)
(0.039968046 -1.9399485e-13 0)
(0.039968046 -3.0634855e-13 0)
(0.039968046 -4.1379621e-13 0)
(0.039968046 -7.0574829e-13 0)
(0.039968046 -9.2298827e-13 0)
(0.039968046 -1.1716686e-12 0)
(0.039968046 -1.2136218e-12 0)
(0.039968046 -1.0894811e-12 0)
(0.039968046 -8.6605557e-13 0)
(0.039968046 -6.1097784e-13 0)
(0.039968046 -1.9831267e-13 0)
(0.039968046 4.3369966e-15 0)
(0.039968046 2.9284795e-13 0)
(0.039968046 3.8287485e-13 0)
(0.039968046 5.3925442e-13 0)
(0.039968046 5.0930164e-13 0)
(0.039968046 5.9516005e-13 0)
(0.039968046 5.1451181e-13 0)
(0.039968046 5.4313008e-13 0)
(0.039968046 4.2888382e-13 0)
(0.039968046 4.0272194e-13 0)
(0.039968046 3.3267485e-13 0)
(0.039968046 4.5157744e-13 0)
(0.039968046 4.4701832e-13 0)
(0.039968046 5.0903351e-13 0)
(0.039968046 4.7671654e-13 0)
(0.039968046 5.3220476e-13 0)
(0.039968046 5.0456937e-13 0)
(0.039968046 5.4005835e-13 0)
(0.039968046 5.0938232e-13 0)
(0.039968046 5.1356922e-13 0)
(0.039968046 4.9221418e-13 0)
(0.039968046 5.0945793e-13 0)
(0.039968046 5.1220607e-13 0)
(0.039968046 4.9019262e-13 0)
(0.039968046 4.5543704e-13 0)
(0.039968046 4.3879886e-13 0)
(0.039968046 5.4494974e-13 0)
(0.039968046 6.2078337e-13 0)
(0.039968046 7.445089e-13 0)
(0.039968046 5.9936363e-13 0)
(0.039968046 4.0233529e-13 0)
(0.039968046 7.6351251e-15 0)
(0.039968046 -1.7261022e-13 0)
(0.039968046 -4.0082245e-13 0)
(0.039968046 -3.9084273e-13 0)
(0.039968046 -5.3131397e-13 0)
(0.039968046 -4.6560502e-13 0)
(0.039968046 -6.2155583e-13 0)
(0.039968046 -5.0322619e-13 0)
(0.039968046 -5.932394e-13 0)
(0.039968046 -3.9231627e-13 0)
(0.039968046 -5.7551399e-13 0)
(0.039968046 -6.2794576e-13 0)
(0.039968046 -9.8959327e-13 0)
(0.039968046 -8.4438407e-13 0)
(0.039968046 -6.6103266e-13 0)
(0.039968046 8.2821441e-15 0)
(0.039968046 2.0554324e-13 0)
(0.039968046 4.3744845e-13 0)
(0.039968046 1.13634e-14 0)
(0.039968046 -1.1546819e-13 0)
(0.039968046 -3.8104324e-13 0)
(0.039968046 -2.1935796e-13 0)
(0.039968046 -2.6255633e-13 0)
(0.039968046 -1.2678823e-13 0)
(0.039968046 -4.1710019e-13 0)
(0.039968046 -3.4185468e-13 0)
(0.039968046 -5.5488114e-13 0)
(0.039968046 -4.4250791e-13 0)
(0.039968046 -5.871506e-13 0)
(0.039968046 -4.326154e-13 0)
(0.039968046 -4.8494134e-13 0)
(0.039968046 -3.2066548e-13 0)
(0.039968046 -4.8054451e-13 0)
(0.039968046 -5.2375073e-13 0)
(0.039968046 -7.7505323e-13 0)
(0.039968046 -7.3384143e-13 0)
(0.039968046 -6.790006e-13 0)
(0.039968046 -3.1160879e-13 0)
(0.039968046 -7.1067873e-14 0)
(0.039968046 2.4586235e-13 0)
(0.039968046 3.0944168e-13 0)
(0.039968046 4.5629803e-13 0)
(0.039968046 4.3966015e-13 0)
(0.039968046 5.4066602e-13 0)
(0.039968046 5.1366781e-13 0)
(0.039968046 5.842265e-13 0)
(0.039968046 5.4766309e-13 0)
(0.039968046 5.9246781e-13 0)
(0.039968046 5.5766838e-13 0)
(0.039968046 5.8563437e-13 0)
(0.039968046 5.5639288e-13 0)
(0.039968046 5.723329e-13 0)
(0.039968046 5.5025664e-13 0)
(0.039968046 5.531192e-13 0)
(0.039968046 5.3459997e-13 0)
(0.039968046 5.288341e-13 0)
(0.039968046 5.2201565e-13 0)
(0.039968046 5.1620686e-13 0)
(0.039968046 5.2117567e-13 0)
(0.039968046 5.3323935e-13 0)
(0.039968046 5.5808002e-13 0)
(0.039968046 5.3704632e-13 0)
(0.039968046 5.1305909e-13 0)
(0.039968046 4.6429201e-13 0)
(0.039968046 5.6446646e-13 0)
(0.039968046 7.0350484e-13 0)
(0.039968046 9.1636707e-13 0)
(0.039968046 9.2598994e-13 0)
(0.039968046 7.6664857e-13 0)
(0.039968046 3.5658815e-13 0)
(0.039968046 4.8061509e-14 0)
(0.039968046 -2.7289654e-13 0)
(0.039968046 -3.8317224e-13 0)
(0.039968046 -4.9316239e-13 0)
(0.039968046 -4.2656888e-13 0)
(0.039968046 -4.933575e-13 0)
(0.039968046 -4.313969e-13 0)
(0.039968046 -5.0091418e-13 0)
(0.039968046 -4.313944e-13 0)
(0.039968046 -4.9492064e-13 0)
(0.039968046 -4.2129317e-13 0)
(0.039968046 -4.9002706e-13 0)
(0.039968046 -4.1648339e-13 0)
(0.039968046 -4.8783814e-13 0)
(0.039968046 -4.1476983e-13 0)
(0.039968046 -4.8502266e-13 0)
(0.039968046 -4.0970964e-13 0)
(0.039968046 -4.7414325e-13 0)
(0.039968046 -4.0066629e-13 0)
(0.039968046 -4.7804703e-13 0)
(0.039968046 -4.2431578e-13 0)
(0.039968046 -5.1112542e-13 0)
(0.039968046 -4.5050811e-13 0)
(0.039968046 -5.2744988e-13 0)
(0.039968046 -4.7512392e-13 0)
(0.039968046 -5.5213762e-13 0)
(0.039968046 -5.0397777e-13 0)
(0.039968046 -5.6898771e-13 0)
(0.039968046 -5.3045454e-13 0)
(0.039968046 -5.9248578e-13 0)
(0.039968046 -5.7174883e-13 0)
(0.039968046 -6.2367087e-13 0)
(0.039968046 -6.1473192e-13 0)
(0.039968046 -6.4413785e-13 0)
(0.039968046 -6.5945961e-13 0)
(0.039968046 -6.920549e-13 0)
(0.039968046 -7.180403e-13 0)
(0.039968046 -6.6513308e-13 0)
(0.039968046 -6.1268831e-13 0)
(0.039968046 -5.4314842e-13 0)
(0.039968046 -6.2088912e-13 0)
(0.039968046 -7.0592053e-13 0)
(0.039968046 -8.1349362e-13 0)
(0.039968046 -6.9594306e-13 0)
(0.039968046 -4.6059191e-13 0)
(0.039968046 -6.0003389e-14 0)
(0.039968046 2.2717025e-13 0)
(0.039968046 3.9949257e-13 0)
(0.039968046 4.2872757e-13 0)
(0.039968046 4.7662118e-13 0)
(0.039968046 5.8967396e-13 0)
(0.039968046 7.464341e-13 0)
(0.039968046 8.4897948e-13 0)
(0.039968046 7.6585076e-13 0)
(0.039968046 4.8887393e-13 0)
(0.039968046 1.5720271e-13 0)
(0.039968046 -9.8397454e-14 0)
(0.039968046 -1.9111417e-13 0)
(0.039968046 -2.6711793e-13 0)
(0.039968046 -3.7903929e-13 0)
(0.039968046 -5.9046053e-13 0)
(0.039968046 -7.4008845e-13 0)
(0.039968046 -7.4462297e-13 0)
(0.039968046 -5.3729389e-13 0)
(0.039968046 -1.9188375e-13 0)
(0.039968046 1.267739e-13 0)
(0.039968046 3.3901253e-13 0)
(0.039968046 4.5153374e-13 0)
(0.039968046 4.5182173e-13 0)
(0.039968046 4.1203184e-13 0)
(0.039968046 3.8162528e-13 0)
(0.039968046 4.6792235e-13 0)
(0.039968046 6.3580662e-13 0)
(0.039968046 8.0423098e-13 0)
(0.039968046 7.6903521e-13 0)
(0.039968046 5.9501891e-13 0)
(0.039968046 2.806517e-13 0)
(0.039968046 1.6846252e-14 0)
(0.039968046 -1.91264e-13 0)
(0.039968046 -4.0249785e-13 0)
(0.039968046 -6.0597165e-13 0)
(0.039968046 -7.6113097e-13 0)
(0.039968046 -7.2158633e-13 0)
(0.039968046 -5.2405518e-13 0)
(0.039968046 -1.7659539e-13 0)
(0.039968046 1.421172e-13 0)
(0.039968046 3.4067572e-13 0)
(0.039968046 4.0907563e-13 0)
(0.039968046 3.9558238e-13 0)
(0.039968046 4.197247e-13 0)
(0.039968046 5.4622538e-13 0)
(0.039968046 7.1366968e-13 0)
(0.039968046 8.1181338e-13 0)
(0.039968046 7.2231867e-13 0)
(0.039968046 4.6163752e-13 0)
(0.039968046 1.2624014e-13 0)
(0.039968046 -1.5666704e-13 0)
(0.039968046 -3.2089315e-13 0)
(0.039968046 -4.1632123e-13 0)
(0.039968046 -4.4848406e-13 0)
(0.039968046 -4.8388453e-13 0)
(0.039968046 -5.0498257e-13 0)
(0.039968046 -5.2691965e-13 0)
(0.039968046 -4.8995663e-13 0)
(0.039968046 -4.3490203e-13 0)
(0.039968046 -3.9845362e-13 0)
(0.039968046 -4.7388483e-13 0)
(0.039968046 -6.0831507e-13 0)
(0.039968046 -7.2065003e-13 0)
(0.039968046 -7.1215624e-13 0)
(0.039968046 -5.7520682e-13 0)
(0.039968046 -3.6312406e-13 0)
(0.039968046 -6.8190339e-14 0)
(0.039968046 2.0679796e-13 0)
(0.039968046 4.8497672e-13 0)
(0.039968046 6.3485815e-13 0)
(0.039968046 6.0779941e-13 0)
(0.039968046 4.0192663e-13 0)
(0.039968046 9.1308833e-14 0)
(0.039968046 -1.6923866e-13 0)
(0.039968046 -3.3900138e-13 0)
(0.039968046 -4.3771775e-13 0)
(0.039968046 -4.8570324e-13 0)
(0.039968046 -5.0739609e-13 0)
(0.039968046 -5.1864258e-13 0)
(0.039968046 -5.1444063e-13 0)
(0.039968046 -5.2137592e-13 0)
(0.039968046 -5.1933365e-13 0)
(0.039968046 -5.2215526e-13 0)
(0.039968046 -5.080801e-13 0)
(0.039968046 -4.9099271e-13 0)
(0.039968046 -4.6892542e-13 0)
(0.039968046 -4.9308727e-13 0)
(0.039968046 -5.2705293e-13 0)
(0.039968046 -4.978538e-13 0)
(0.039968046 -3.6095231e-13 0)
(0.039968046 -3.5923679e-13 0)
(0.039968046 -6.1606047e-13 0)
(0.039968046 -8.1397771e-13 0)
(0.039968046 -4.4419024e-13 0)
(0.36732383 0.14062829 0)
(0.29754389 0.025079384 0)
(0.1860793 0.0083694746 0)
(0.16132807 0.0041218927 0)
(0.13901859 0.0019375949 0)
(0.13040448 0.0011770309 0)
(0.12396461 0.00061112749 0)
(0.12095999 0.00037191362 0)
(0.1189454 0.00019726057 0)
(0.11794826 0.00011563907 0)
(0.11733081 6.0261342e-05 0)
(0.11702581 3.3418829e-05 0)
(0.11685065 1.6515381e-05 0)
(0.11676842 8.3961901e-06 0)
(0.1167257 3.666341e-06 0)
(0.11670834 1.5233281e-06 0)
(0.1167012 4.0115833e-07 0)
(0.11669986 -2.7185129e-08 0)
(0.1167004 -1.9883747e-07 0)
(0.11670175 -2.160858e-07 0)
(0.11670304 -1.9065826e-07 0)
(0.11670415 -1.4634462e-07 0)
(0.11670497 -1.0663027e-07 0)
(0.11670557 -7.3467757e-08 0)
(0.11670597 -4.9245487e-08 0)
(0.11670624 -3.1937302e-08 0)
(0.11670642 -2.0309851e-08 0)
(0.11670653 -1.2615922e-08 0)
(0.11670659 -7.7087231e-09 0)
(0.11670664 -4.6143616e-09 0)
(0.11670666 -2.7133238e-09 0)
(0.11670667 -1.560569e-09 0)
(0.11670668 -8.8026538e-10 0)
(0.11670669 -4.8491604e-10 0)
(0.11670669 -2.604951e-10 0)
(0.11670669 -1.3445815e-10 0)
(0.11670669 -6.5734132e-11 0)
(0.11670669 -2.9292979e-11 0)
(0.11670669 -1.1044562e-11 0)
(0.11670669 -2.6277309e-12 0)
(0.11670669 5.7595431e-13 0)
(0.11670669 1.3334041e-12 0)
(0.11670669 1.8379285e-12 0)
(0.11670669 2.334392e-12 0)
(0.11670669 2.6305622e-12 0)
(0.11670669 1.9936157e-12 0)
(0.11670669 7.2714393e-13 0)
(0.11670669 -2.3488534e-13 0)
(0.11670669 -4.0026878e-13 0)
(0.11670669 -8.9878553e-13 0)
(0.11670669 -1.1334123e-12 0)
(0.11670669 -2.078865e-12 0)
(0.11670669 -2.6049158e-12 0)
(0.11670669 -3.358098e-12 0)
(0.11670669 -3.4436696e-12 0)
(0.11670669 -3.1250986e-12 0)
(0.11670669 -2.4582371e-12 0)
(0.11670669 -1.8747359e-12 0)
(0.11670669 -5.2722473e-13 0)
(0.11670669 -1.4935802e-13 0)
(0.11670669 8.7555123e-13 0)
(0.11670669 1.0108149e-12 0)
(0.11670669 1.601915e-12 0)
(0.11670669 1.4604353e-12 0)
(0.11670669 1.807207e-12 0)
(0.11670669 1.5812487e-12 0)
(0.11670669 1.693562e-12 0)
(0.11670669 1.3893088e-12 0)
(0.11670669 1.32803e-12 0)
(0.11670669 1.0082351e-12 0)
(0.11670669 1.4611148e-12 0)
(0.11670669 1.2472064e-12 0)
(0.11670669 1.5871639e-12 0)
(0.11670669 1.3520154e-12 0)
(0.11670669 1.6628127e-12 0)
(0.11670669 1.4556449e-12 0)
(0.11670669 1.7030596e-12 0)
(0.11670669 1.4803179e-12 0)
(0.11670669 1.6320756e-12 0)
(0.11670669 1.4286909e-12 0)
(0.11670669 1.6179239e-12 0)
(0.11670669 1.4924519e-12 0)
(0.11670669 1.5624085e-12 0)
(0.11670669 1.3307948e-12 0)
(0.11670669 1.4128777e-12 0)
(0.11670669 1.5704709e-12 0)
(0.11670669 1.9393171e-12 0)
(0.11670669 2.1618511e-12 0)
(0.11670669 1.8717399e-12 0)
(0.11670669 1.1899374e-12 0)
(0.11670669 1.4239143e-13 0)
(0.11670669 -4.8740392e-13 0)
(0.11670669 -1.0478597e-12 0)
(0.11670669 -1.1258192e-12 0)
(0.11670669 -1.4251375e-12 0)
(0.11670669 -1.3460928e-12 0)
(0.11670669 -1.6917562e-12 0)
(0.11670669 -1.4703341e-12 0)
(0.11670669 -1.6181359e-12 0)
(0.11670669 -1.154414e-12 0)
(0.11670669 -1.564955e-12 0)
(0.11670669 -1.8058561e-12 0)
(0.11670669 -2.7661951e-12 0)
(0.11670669 -2.4739715e-12 0)
(0.11670669 -1.8351162e-12 0)
(0.11670669 -2.0230747e-14 0)
(0.11670669 7.1258535e-13 0)
(0.11670669 1.2719332e-12 0)
(0.11670669 1.13455e-13 0)
(0.11670669 -3.4637351e-13 0)
(0.11670669 -1.0693594e-12 0)
(0.11670669 -6.8824358e-13 0)
(0.11670669 -7.8640634e-13 0)
(0.11670669 -4.8138149e-13 0)
(0.11670669 -1.1819724e-12 0)
(0.11670669 -1.0567016e-12 0)
(0.11670669 -1.5661517e-12 0)
(0.11670669 -1.3219083e-12 0)
(0.11670669 -1.6647864e-12 0)
(0.11670669 -1.2938349e-12 0)
(0.11670669 -1.3802742e-12 0)
(0.11670669 -9.6528223e-13 0)
(0.11670669 -1.3685886e-12 0)
(0.11670669 -1.5348408e-12 0)
(0.11670669 -2.2435876e-12 0)
(0.11670669 -2.1794749e-12 0)
(0.11670669 -1.975225e-12 0)
(0.11670669 -9.6748626e-13 0)
(0.11670669 -2.1373716e-13 0)
(0.11670669 6.5424085e-13 0)
(0.11670669 8.8274375e-13 0)
(0.11670669 1.2628177e-12 0)
(0.11670669 1.2474767e-12 0)
(0.11670669 1.5067927e-12 0)
(0.11670669 1.4588958e-12 0)
(0.11670669 1.6368689e-12 0)
(0.11670669 1.5555491e-12 0)
(0.11670669 1.6640777e-12 0)
(0.11670669 1.5828284e-12 0)
(0.11670669 1.6471995e-12 0)
(0.11670669 1.5774686e-12 0)
(0.11670669 1.6119351e-12 0)
(0.11670669 1.5579339e-12 0)
(0.11670669 1.5591852e-12 0)
(0.11670669 1.5109961e-12 0)
(0.11670669 1.4931119e-12 0)
(0.11670669 1.4753154e-12 0)
(0.11670669 1.4599388e-12 0)
(0.11670669 1.4709707e-12 0)
(0.11670669 1.5043691e-12 0)
(0.11670669 1.57121e-12 0)
(0.11670669 1.5274847e-12 0)
(0.11670669 1.4457822e-12 0)
(0.11670669 1.3198118e-12 0)
(0.11670669 1.589349e-12 0)
(0.11670669 1.9960187e-12 0)
(0.11670669 2.6070265e-12 0)
(0.11670669 2.6633265e-12 0)
(0.11670669 2.1864997e-12 0)
(0.11670669 1.0483069e-12 0)
(0.11670669 1.196807e-13 0)
(0.11670669 -7.6343351e-13 0)
(0.11670669 -1.0891145e-12 0)
(0.11670669 -1.3690236e-12 0)
(0.11670669 -1.241593e-12 0)
(0.11670669 -1.3985601e-12 0)
(0.11670669 -1.2711098e-12 0)
(0.11670669 -1.4315581e-12 0)
(0.11670669 -1.2732579e-12 0)
(0.11670669 -1.41235e-12 0)
(0.11670669 -1.2429235e-12 0)
(0.11670669 -1.3949476e-12 0)
(0.11670669 -1.227446e-12 0)
(0.11670669 -1.387484e-12 0)
(0.11670669 -1.22133e-12 0)
(0.11670669 -1.3794823e-12 0)
(0.11670669 -1.2079014e-12 0)
(0.11670669 -1.351488e-12 0)
(0.11670669 -1.179412e-12 0)
(0.11670669 -1.3644576e-12 0)
(0.11670669 -1.2396168e-12 0)
(0.11670669 -1.4544241e-12 0)
(0.11670669 -1.3066044e-12 0)
(0.11670669 -1.4913761e-12 0)
(0.11670669 -1.3690197e-12 0)
(0.11670669 -1.5536185e-12 0)
(0.11670669 -1.445678e-12 0)
(0.11670669 -1.596266e-12 0)
(0.11670669 -1.5108792e-12 0)
(0.11670669 -1.6584062e-12 0)
(0.11670669 -1.6160545e-12 0)
(0.11670669 -1.744707e-12 0)
(0.11670669 -1.7240584e-12 0)
(0.11670669 -1.7936589e-12 0)
(0.11670669 -1.8335534e-12 0)
(0.11670669 -1.9186727e-12 0)
(0.11670669 -1.9916586e-12 0)
(0.11670669 -1.8530705e-12 0)
(0.11670669 -1.6936389e-12 0)
(0.11670669 -1.5128986e-12 0)
(0.11670669 -1.7393158e-12 0)
(0.11670669 -2.0105024e-12 0)
(0.11670669 -2.3395404e-12 0)
(0.11670669 -2.0408038e-12 0)
(0.11670669 -1.3457638e-12 0)
(0.11670669 -2.1040947e-13 0)
(0.11670669 6.3838537e-13 0)
(0.11670669 1.1317454e-12 0)
(0.11670669 1.211238e-12 0)
(0.11670669 1.339692e-12 0)
(0.11670669 1.6547019e-12 0)
(0.11670669 2.1262314e-12 0)
(0.11670669 2.4320362e-12 0)
(0.11670669 2.2109352e-12 0)
(0.11670669 1.4183654e-12 0)
(0.11670669 4.4786354e-13 0)
(0.11670669 -2.9069441e-13 0)
(0.11670669 -5.6917661e-13 0)
(0.11670669 -7.6390184e-13 0)
(0.11670669 -1.0926662e-12 0)
(0.11670669 -1.6933327e-12 0)
(0.11670669 -2.1457593e-12 0)
(0.11670669 -2.1739902e-12 0)
(0.11670669 -1.5744e-12 0)
(0.11670669 -5.7079601e-13 0)
(0.11670669 3.5030877e-13 0)
(0.11670669 9.7270682e-13 0)
(0.11670669 1.2902255e-12 0)
(0.11670669 1.298565e-12 0)
(0.11670669 1.1839104e-12 0)
(0.11670669 1.0930304e-12 0)
(0.11670669 1.3261412e-12 0)
(0.11670669 1.8356606e-12 0)
(0.11670669 2.3099703e-12 0)
(0.11670669 2.2413034e-12 0)
(0.11670669 1.724908e-12 0)
(0.11670669 8.0602322e-13 0)
(0.11670669 4.8230574e-14 0)
(0.11670669 -5.5986611e-13 0)
(0.11670669 -1.1420826e-12 0)
(0.11670669 -1.7533529e-12 0)
(0.11670669 -2.1924294e-12 0)
(0.11670669 -2.0994917e-12 0)
(0.11670669 -1.5329359e-12 0)
(0.11670669 -5.1834308e-13 0)
(0.11670669 3.9336287e-13 0)
(0.11670669 9.8642681e-13 0)
(0.11670669 1.1800184e-12 0)
(0.11670669 1.1326064e-12 0)
(0.11670669 1.1941136e-12 0)
(0.11670669 1.5559187e-12 0)
(0.11670669 2.0383519e-12 0)
(0.11670669 2.3381587e-12 0)
(0.11670669 2.0973254e-12 0)
(0.11670669 1.3331076e-12 0)
(0.11670669 3.657756e-13 0)
(0.11670669 -4.5378027e-13 0)
(0.11670669 -9.3469655e-13 0)
(0.11670669 -1.1997606e-12 0)
(0.11670669 -1.2983447e-12 0)
(0.11670669 -1.3901407e-12 0)
(0.11670669 -1.4619414e-12 0)
(0.11670669 -1.5244444e-12 0)
(0.11670669 -1.4324753e-12 0)
(0.11670669 -1.2621131e-12 0)
(0.11670669 -1.1623775e-12 0)
(0.11670669 -1.3623196e-12 0)
(0.11670669 -1.7611698e-12 0)
(0.11670669 -2.0919635e-12 0)
(0.11670669 -2.0708558e-12 0)
(0.11670669 -1.6678298e-12 0)
(0.11670669 -1.045334e-12 0)
(0.11670669 -2.0494639e-13 0)
(0.11670669 5.9144648e-13 0)
(0.11670669 1.4104306e-12 0)
(0.11670669 1.8527206e-12 0)
(0.11670669 1.7893765e-12 0)
(0.11670669 1.1943207e-12 0)
(0.11670669 2.8240581e-13 0)
(0.11670669 -4.6190835e-13 0)
(0.11670669 -9.7128121e-13 0)
(0.11670669 -1.2454436e-12 0)
(0.11670669 -1.3931776e-12 0)
(0.11670669 -1.4546128e-12 0)
(0.11670669 -1.4908055e-12 0)
(0.11670669 -1.4860761e-12 0)
(0.11670669 -1.5072439e-12 0)
(0.11670669 -1.497578e-12 0)
(0.11670669 -1.5101789e-12 0)
(0.11670669 -1.4667532e-12 0)
(0.11670669 -1.4206834e-12 0)
(0.11670669 -1.3522245e-12 0)
(0.11670669 -1.4203968e-12 0)
(0.11670669 -1.5197021e-12 0)
(0.11670669 -1.4509995e-12 0)
(0.11670669 -1.0591197e-12 0)
(0.11670669 -1.017608e-12 0)
(0.11670669 -1.7336442e-12 0)
(0.11670669 -2.3758048e-12 0)
(0.11670669 -1.3618298e-12 0)
(0.50390834 0.19019021 0)
(0.43847039 0.050431505 0)
(0.29767008 0.02205533 0)
(0.25944374 0.010780121 0)
(0.22598939 0.0055621586 0)
(0.21213187 0.0032308094 0)
(0.20205719 0.0017732898 0)
(0.19716897 0.0010457312 0)
(0.19394744 0.00057678611 0)
(0.19230772 0.0003313282 0)
(0.19130242 0.00017832783 0)
(0.19079327 9.7728004e-05 0)
(0.19050201 4.9925693e-05 0)
(0.1903612 2.5329499e-05 0)
(0.19028762 1.1622986e-05 0)
(0.19025609 4.971473e-06 0)
(0.1902425 1.5983274e-06 0)
(0.19023894 1.745681e-07 0)
(0.19023899 -3.9950337e-07 0)
(0.19024063 -5.2266475e-07 0)
(0.19024241 -4.8530798e-07 0)
(0.19024402 -3.8520456e-07 0)
(0.19024524 -2.8513783e-07 0)
(0.19024615 -1.994576e-07 0)
(0.19024677 -1.3491909e-07 0)
(0.19024719 -8.8378741e-08 0)
(0.19024746 -5.6607351e-08 0)
(0.19024763 -3.5439583e-08 0)
(0.19024774 -2.1788005e-08 0)
(0.1902478 -1.3134502e-08 0)
(0.19024784 -7.7767528e-09 0)
(0.19024787 -4.5120159e-09 0)
(0.19024788 -2.5671321e-09 0)
(0.19024789 -1.4278815e-09 0)
(0.19024789 -7.7473151e-10 0)
(0.19024789 -4.0625356e-10 0)
(0.1902479 -2.0374641e-10 0)
(0.1902479 -9.5446683e-11 0)
(0.1902479 -4.0024153e-11 0)
(0.1902479 -1.3340362e-11 0)
(0.1902479 -1.8582231e-12 0)
(0.1902479 2.1815884e-12 0)
(0.1902479 3.9314675e-12 0)
(0.1902479 4.6985913e-12 0)
(0.1902479 4.8084943e-12 0)
(0.1902479 3.585253e-12 0)
(0.1902479 1.5729276e-12 0)
(0.1902479 2.7969716e-14 0)
(0.1902479 -3.0726357e-13 0)
(0.1902479 -1.1335201e-12 0)
(0.1902479 -1.4901245e-12 0)
(0.1902479 -2.9159924e-12 0)
(0.1902479 -3.6966372e-12 0)
(0.1902479 -4.7824085e-12 0)
(0.1902479 -4.8289951e-12 0)
(0.1902479 -4.3077736e-12 0)
(0.1902479 -3.2545284e-12 0)
(0.1902479 -2.4190187e-12 0)
(0.1902479 -5.0788746e-13 0)
(0.1902479 -7.7830415e-14 0)
(0.1902479 1.3930087e-12 0)
(0.1902479 1.5184527e-12 0)
(0.1902479 2.3893703e-12 0)
(0.1902479 2.1675823e-12 0)
(0.1902479 2.6756679e-12 0)
(0.1902479 2.3576198e-12 0)
(0.1902479 2.558731e-12 0)
(0.1902479 2.1798557e-12 0)
(0.1902479 2.1532411e-12 0)
(0.1902479 1.6694996e-12 0)
(0.1902479 2.3004806e-12 0)
(0.1902479 1.9175578e-12 0)
(0.1902479 2.4364181e-12 0)
(0.1902479 2.0678609e-12 0)
(0.1902479 2.5548225e-12 0)
(0.1902479 2.2295549e-12 0)
(0.1902479 2.626446e-12 0)
(0.1902479 2.2854483e-12 0)
(0.1902479 2.5475277e-12 0)
(0.1902479 2.219698e-12 0)
(0.1902479 2.5043893e-12 0)
(0.1902479 2.2670528e-12 0)
(0.1902479 2.370859e-12 0)
(0.1902479 2.0372342e-12 0)
(0.1902479 2.2071122e-12 0)
(0.1902479 2.3945551e-12 0)
(0.1902479 2.8820084e-12 0)
(0.1902479 3.059035e-12 0)
(0.1902479 2.5491267e-12 0)
(0.1902479 1.5351631e-12 0)
(0.1902479 6.5020128e-14 0)
(0.1902479 -8.0945061e-13 0)
(0.1902479 -1.5644682e-12 0)
(0.1902479 -1.6578299e-12 0)
(0.1902479 -2.0461705e-12 0)
(0.1902479 -1.9237661e-12 0)
(0.1902479 -2.3817764e-12 0)
(0.1902479 -2.0728951e-12 0)
(0.1902479 -2.2875876e-12 0)
(0.1902479 -1.6896628e-12 0)
(0.1902479 -2.2908129e-12 0)
(0.1902479 -2.6013638e-12 0)
(0.1902479 -3.8243065e-12 0)
(0.1902479 -3.2853931e-12 0)
(0.1902479 -2.3050906e-12 0)
(0.1902479 1.5389762e-13 0)
(0.1902479 1.0673384e-12 0)
(0.1902479 1.7086387e-12 0)
(0.1902479 -8.8270425e-15 0)
(0.1902479 -7.2021457e-13 0)
(0.1902479 -1.7868845e-12 0)
(0.1902479 -1.2860467e-12 0)
(0.1902479 -1.3886635e-12 0)
(0.1902479 -8.9612336e-13 0)
(0.1902479 -1.7834359e-12 0)
(0.1902479 -1.5878211e-12 0)
(0.1902479 -2.2901564e-12 0)
(0.1902479 -1.9702024e-12 0)
(0.1902479 -2.4489088e-12 0)
(0.1902479 -1.9363968e-12 0)
(0.1902479 -2.0584545e-12 0)
(0.1902479 -1.5105527e-12 0)
(0.1902479 -2.0960505e-12 0)
(0.1902479 -2.3155971e-12 0)
(0.1902479 -3.236185e-12 0)
(0.1902479 -3.0469544e-12 0)
(0.1902479 -2.6586669e-12 0)
(0.1902479 -1.2306795e-12 0)
(0.1902479 -1.808316e-13 0)
(0.1902479 1.0060761e-12 0)
(0.1902479 1.3116786e-12 0)
(0.1902479 1.8165104e-12 0)
(0.1902479 1.7767555e-12 0)
(0.1902479 2.1199797e-12 0)
(0.1902479 2.0504395e-12 0)
(0.1902479 2.2968232e-12 0)
(0.1902479 2.1902898e-12 0)
(0.1902479 2.3426796e-12 0)
(0.1902479 2.2326414e-12 0)
(0.1902479 2.320134e-12 0)
(0.1902479 2.2230816e-12 0)
(0.1902479 2.266556e-12 0)
(0.1902479 2.1890433e-12 0)
(0.1902479 2.1857865e-12 0)
(0.1902479 2.1190008e-12 0)
(0.1902479 2.0944788e-12 0)
(0.1902479 2.072255e-12 0)
(0.1902479 2.0538104e-12 0)
(0.1902479 2.0738611e-12 0)
(0.1902479 2.1227637e-12 0)
(0.1902479 2.214287e-12 0)
(0.1902479 2.1533699e-12 0)
(0.1902479 2.06227e-12 0)
(0.1902479 1.9336416e-12 0)
(0.1902479 2.3506943e-12 0)
(0.1902479 2.9063316e-12 0)
(0.1902479 3.6745954e-12 0)
(0.1902479 3.6227772e-12 0)
(0.1902479 2.8647156e-12 0)
(0.1902479 1.2765307e-12 0)
(0.1902479 1.5342904e-14 0)
(0.1902479 -1.1742619e-12 0)
(0.1902479 -1.5990048e-12 0)
(0.1902479 -1.9741282e-12 0)
(0.1902479 -1.8013964e-12 0)
(0.1902479 -2.0145659e-12 0)
(0.1902479 -1.8413221e-12 0)
(0.1902479 -2.0629963e-12 0)
(0.1902479 -1.8492905e-12 0)
(0.1902479 -2.0408875e-12 0)
(0.1902479 -1.8079888e-12 0)
(0.1902479 -2.0128024e-12 0)
(0.1902479 -1.7806417e-12 0)
(0.1902479 -1.9953006e-12 0)
(0.1902479 -1.7655141e-12 0)
(0.1902479 -1.9777776e-12 0)
(0.1902479 -1.7398196e-12 0)
(0.1902479 -1.9328425e-12 0)
(0.1902479 -1.6946789e-12 0)
(0.1902479 -1.9465815e-12 0)
(0.1902479 -1.7689151e-12 0)
(0.1902479 -2.061018e-12 0)
(0.1902479 -1.8521499e-12 0)
(0.1902479 -2.1079018e-12 0)
(0.1902479 -1.9395785e-12 0)
(0.1902479 -2.1959864e-12 0)
(0.1902479 -2.0502461e-12 0)
(0.1902479 -2.261343e-12 0)
(0.1902479 -2.1498366e-12 0)
(0.1902479 -2.3523775e-12 0)
(0.1902479 -2.2911748e-12 0)
(0.1902479 -2.4620162e-12 0)
(0.1902479 -2.4262221e-12 0)
(0.1902479 -2.5168634e-12 0)
(0.1902479 -2.5667379e-12 0)
(0.1902479 -2.6714626e-12 0)
(0.1902479 -2.756367e-12 0)
(0.1902479 -2.5636243e-12 0)
(0.1902479 -2.3707522e-12 0)
(0.1902479 -2.1729787e-12 0)
(0.1902479 -2.5256242e-12 0)
(0.1902479 -2.868486e-12 0)
(0.1902479 -3.2470452e-12 0)
(0.1902479 -2.7389788e-12 0)
(0.1902479 -1.7150825e-12 0)
(0.1902479 -1.5029708e-13 0)
(0.1902479 9.9440981e-13 0)
(0.1902479 1.6554917e-12 0)
(0.1902479 1.7665131e-12 0)
(0.1902479 1.9674377e-12 0)
(0.1902479 2.4026742e-12 0)
(0.1902479 3.0089987e-12 0)
(0.1902479 3.3348895e-12 0)
(0.1902479 2.9168089e-12 0)
(0.1902479 1.7547913e-12 0)
(0.1902479 4.039755e-13 0)
(0.1902479 -6.1298863e-13 0)
(0.1902479 -1.0121501e-12 0)
(0.1902479 -1.3045572e-12 0)
(0.1902479 -1.7717409e-12 0)
(0.1902479 -2.5548962e-12 0)
(0.1902479 -3.0801295e-12 0)
(0.1902479 -2.9993524e-12 0)
(0.1902479 -2.0728213e-12 0)
(0.1902479 -6.5764258e-13 0)
(0.1902479 6.1342075e-13 0)
(0.1902479 1.4721068e-12 0)
(0.1902479 1.8928885e-12 0)
(0.1902479 1.8878663e-12 0)
(0.1902479 1.7356875e-12 0)
(0.1902479 1.6466166e-12 0)
(0.1902479 2.0010655e-12 0)
(0.1902479 2.6940084e-12 0)
(0.1902479 3.2654382e-12 0)
(0.1902479 3.065227e-12 0)
(0.1902479 2.2649778e-12 0)
(0.1902479 9.6949319e-13 0)
(0.1902479 -8.7894183e-14 0)
(0.1902479 -9.5610692e-13 0)
(0.1902479 -1.7613115e-12 0)
(0.1902479 -2.5566053e-12 0)
(0.1902479 -3.0543508e-12 0)
(0.1902479 -2.8086998e-12 0)
(0.1902479 -1.9451924e-12 0)
(0.1902479 -5.2413201e-13 0)
(0.1902479 7.1696209e-13 0)
(0.1902479 1.51321e-12 0)
(0.1902479 1.7629395e-12 0)
(0.1902479 1.7005549e-12 0)
(0.1902479 1.8096575e-12 0)
(0.1902479 2.3134325e-12 0)
(0.1902479 2.925587e-12 0)
(0.1902479 3.237377e-12 0)
(0.1902479 2.8052797e-12 0)
(0.1902479 1.6759199e-12 0)
(0.1902479 3.314892e-13 0)
(0.1902479 -7.9738625e-13 0)
(0.1902479 -1.4526103e-12 0)
(0.1902479 -1.8019059e-12 0)
(0.1902479 -1.9224714e-12 0)
(0.1902479 -2.035725e-12 0)
(0.1902479 -2.1290265e-12 0)
(0.1902479 -2.2077608e-12 0)
(0.1902479 -2.0812044e-12 0)
(0.1902479 -1.8622258e-12 0)
(0.1902479 -1.764537e-12 0)
(0.1902479 -2.0610081e-12 0)
(0.1902479 -2.5877472e-12 0)
(0.1902479 -2.9655069e-12 0)
(0.1902479 -2.8366644e-12 0)
(0.1902479 -2.1869707e-12 0)
(0.1902479 -1.2703281e-12 0)
(0.1902479 -7.0403623e-14 0)
(0.1902479 1.0357645e-12 0)
(0.1902479 2.120902e-12 0)
(0.1902479 2.6224871e-12 0)
(0.1902479 2.4066203e-12 0)
(0.1902479 1.5008226e-12 0)
(0.1902479 2.1253111e-13 0)
(0.1902479 -8.125638e-13 0)
(0.1902479 -1.5123262e-12 0)
(0.1902479 -1.8674252e-12 0)
(0.1902479 -2.0454223e-12 0)
(0.1902479 -2.1079723e-12 0)
(0.1902479 -2.1508368e-12 0)
(0.1902479 -2.146213e-12 0)
(0.1902479 -2.1828422e-12 0)
(0.1902479 -2.1711241e-12 0)
(0.1902479 -2.1912183e-12 0)
(0.1902479 -2.1261565e-12 0)
(0.1902479 -2.0637896e-12 0)
(0.1902479 -1.9716707e-12 0)
(0.1902479 -2.0721408e-12 0)
(0.1902479 -2.193426e-12 0)
(0.1902479 -2.0804834e-12 0)
(0.1902479 -1.563943e-12 0)
(0.1902479 -1.5798519e-12 0)
(0.1902479 -2.5610102e-12 0)
(0.1902479 -3.3125952e-12 0)
(0.1902479 -1.820354e-12 0)
(0.59346672 0.21467329 0)
(0.54593347 0.075998408 0)
(0.39702192 0.039312309 0)
(0.34953974 0.019720574 0)
(0.30792187 0.010726751 0)
(0.28963523 0.0061583873 0)
(0.27651264 0.0034761859 0)
(0.26994405 0.0020290989 0)
(0.26565503 0.001140981 0)
(0.26342423 0.00065139854 0)
(0.26206335 0.00035632865 0)
(0.26136077 0.00019487235 0)
(0.26095907 0.00010129532 0)
(0.26076048 5.1593717e-05 0)
(0.260656 2.4318967e-05 0)
(0.26060945 1.0646819e-05 0)
(0.26058866 3.7629993e-06 0)
(0.26058217 7.1331101e-07 0)
(0.26058122 -5.4173292e-07 0)
(0.26058278 -8.8387835e-07 0)
(0.2605848 -8.6454335e-07 0)
(0.26058673 -7.0567228e-07 0)
(0.26058825 -5.2990633e-07 0)
(0.26058939 -3.7503814e-07 0)
(0.26059018 -2.5564011e-07 0)
(0.26059072 -1.6869056e-07 0)
(0.26059108 -1.0865424e-07 0)
(0.2605913 -6.840505e-08 0)
(0.26059144 -4.2250658e-08 0)
(0.26059153 -2.5596824e-08 0)
(0.26059159 -1.5229961e-08 0)
(0.26059162 -8.8869917e-09 0)
(0.26059163 -5.0853737e-09 0)
(0.26059165 -2.8463107e-09 0)
(0.26059165 -1.5547246e-09 0)
(0.26059165 -8.231955e-10 0)
(0.26059166 -4.1905487e-10 0)
(0.26059166 -2.0142686e-10 0)
(0.26059166 -8.8659723e-11 0)
(0.26059166 -3.3113493e-11 0)
(0.26059166 -7.957771e-12 0)
(0.26059166 2.1390221e-12 0)
(0.26059166 6.2201156e-12 0)
(0.26059166 7.353053e-12 0)
(0.26059166 6.9095174e-12 0)
(0.26059166 5.007648e-12 0)
(0.26059166 2.4973539e-12 0)
(0.26059166 6.199601e-13 0)
(0.26059166 9.5484544e-14 0)
(0.26059166 -8.9852246e-13 0)
(0.26059166 -1.2819566e-12 0)
(0.26059166 -2.9449481e-12 0)
(0.26059166 -3.9068575e-12 0)
(0.26059166 -5.1166887e-12 0)
(0.26059166 -5.0049786e-12 0)
(0.26059166 -4.2869651e-12 0)
(0.26059166 -2.9414881e-12 0)
(0.26059166 -1.954743e-12 0)
(0.26059166 1.228031e-13 0)
(0.26059166 4.4095465e-13 0)
(0.26059166 1.9670777e-12 0)
(0.26059166 1.9945032e-12 0)
(0.26059166 2.9446559e-12 0)
(0.26059166 2.6406585e-12 0)
(0.26059166 3.1892019e-12 0)
(0.26059166 2.7673732e-12 0)
(0.26059166 3.0453846e-12 0)
(0.26059166 2.6537478e-12 0)
(0.26059166 2.7285908e-12 0)
(0.26059166 2.1749014e-12 0)
(0.26059166 2.8638644e-12 0)
(0.26059166 2.3770554e-12 0)
(0.26059166 2.9692871e-12 0)
(0.26059166 2.5326995e-12 0)
(0.26059166 3.0946702e-12 0)
(0.26059166 2.7013168e-12 0)
(0.26059166 3.1737287e-12 0)
(0.26059166 2.7921101e-12 0)
(0.26059166 3.1280556e-12 0)
(0.26059166 2.7435757e-12 0)
(0.26059166 3.024832e-12 0)
(0.26059166 2.6742444e-12 0)
(0.26059166 2.7388259e-12 0)
(0.26059166 2.4194812e-12 0)
(0.26059166 2.6761981e-12 0)
(0.26059166 2.8703527e-12 0)
(0.26059166 3.2165341e-12 0)
(0.26059166 3.1313232e-12 0)
(0.26059166 2.2615523e-12 0)
(0.26059166 1.1129863e-12 0)