/*--------------------------------*- C++ -*----------------------------------*\
| =========                 |                                                 |
| \\      /  F ield         | OpenFOAM: The Open Source CFD Toolbox           |
|  \\    /   O peration     | Version:  2206                                  |
|   \\  /    A nd           | Website:  www.openfoam.com                      |
|    \\/     M anipulation  |                                                 |
\*---------------------------------------------------------------------------*/
FoamFile
{
    version     2.0;
    format      ascii;
    arch        "LSB;label=32;scalar=64";
    class       surfaceScalarField;
    location    "7";
    object      phi;
}
// * * * * * * * * * * * * * * * * * * * * * * * * * * * * * * * * * * * * * //

dimensions      [0 3 -1 0 0 0 0];

oriented        oriented;

internalField   nonuniform List<scalar> 
29650
(
6.0867648e-05
0.00020579915
3.271817e-05
2.8149482e-05
2.4599021e-05
8.1191503e-06
2.0417848e-05
4.181172e-06
1.8552178e-05
1.8656678e-06
1.73737e-05
1.178473e-06
1.6781661e-05
5.9203332e-07
1.6412315e-05
3.6934124e-07
1.622082e-05
1.9149044e-07
1.6106686e-05
1.1413309e-07
1.6048258e-05
5.8427815e-08
1.6015474e-05
3.2784902e-08
1.5999542e-05
1.5933555e-08
1.5991376e-05
8.166912e-09
1.5987889e-05
3.4880943e-09
1.598644e-05
1.4494221e-09
1.5986091e-05
3.5026398e-10
1.5986138e-05
-4.7619287e-11
1.5986349e-05
-2.1104529e-10
1.5986569e-05
-2.1998212e-10
1.5986762e-05
-1.9242656e-10
1.5986908e-05
-1.4628478e-10
1.5987014e-05
-1.0630481e-10
1.5987087e-05
-7.2923911e-11
1.5987136e-05
-4.8822978e-11
1.5987167e-05
-3.1599248e-11
1.5987187e-05
-2.0089824e-11
1.59872e-05
-1.2465325e-11
1.5987208e-05
-7.6122928e-12
1.5987212e-05
-4.5516059e-12
1.5987215e-05
-2.6753916e-12
1.5987216e-05
-1.5398033e-12
1.5987217e-05
-8.6931359e-13
1.5987218e-05
-4.7922142e-13
1.5987218e-05
-2.572594e-13
1.5987218e-05
-1.332561e-13
1.5987218e-05
-6.5700301e-14
1.5987218e-05
-3.033918e-14
1.5987218e-05
-1.2674033e-14
1.5987218e-05
-4.3437971e-15
1.5987218e-05
-6.5310975e-16
1.5987218e-05
1.1322662e-15
1.5987218e-05
2.0020498e-15
1.5987218e-05
2.0674298e-15
1.5987218e-05
1.1334143e-15
1.5987218e-05
1.571739e-16
1.5987218e-05
-5.3729328e-16
1.5987218e-05
-5.0429528e-16
1.5987218e-05
-2.3214658e-16
1.5987218e-05
-8.5552541e-17
1.5987218e-05
-1.7294964e-16
1.5987218e-05
-2.6471725e-16
1.5987218e-05
-4.0421932e-16
1.5987218e-05
-4.90183e-16
1.5987218e-05
-5.8535689e-16
1.5987218e-05
-5.2574349e-16
1.5987218e-05
-5.4247078e-16
1.5987218e-05
-5.697397e-16
1.5987218e-05
-5.7637216e-16
1.5987218e-05
-4.9435868e-16
1.5987218e-05
-4.1573311e-16
1.5987218e-05
-4.2121622e-16
1.5987218e-05
-6.0192496e-16
1.5987218e-05
-7.9787627e-16
1.5987218e-05
-8.7866471e-16
1.5987218e-05
-6.9054403e-16
1.5987218e-05
-3.1517217e-16
1.5987218e-05
1.2839664e-16
1.5987218e-05
3.4393754e-16
1.5987218e-05
4.3349886e-16
1.5987218e-05
4.1608367e-16
1.5987218e-05
3.6676576e-16
1.5987218e-05
4.0505816e-16
1.5987218e-05
5.0547391e-16
1.5987218e-05
7.1218671e-16
1.5987218e-05
8.086374e-16
1.5987218e-05
8.139299e-16
1.5987218e-05
5.5327372e-16
1.5987218e-05
3.2648414e-16
1.5987218e-05
-1.9773403e-17
1.5987218e-05
-8.5554505e-17
1.5987218e-05
-2.161485e-16
1.5987218e-05
-1.1192714e-16
1.5987218e-05
-2.2012566e-16
1.5987218e-05
-1.7072842e-16
1.5987218e-05
-3.3385001e-16
1.5987218e-05
-2.8698253e-16
1.5987218e-05
-4.1565429e-16
1.5987218e-05
-3.3456356e-16
1.5987218e-05
-4.3161013e-16
1.5987218e-05
-3.5426419e-16
1.5987218e-05
-4.3295384e-16
1.5987218e-05
-3.6439674e-16
1.5987218e-05
-4.5085442e-16
1.5987218e-05
-4.1649411e-16
1.5987218e-05
-4.4838229e-16
1.5987218e-05
-3.3234967e-16
1.5987218e-05
-3.2020209e-16
1.5987218e-05
-3.2282753e-16
1.5987218e-05
-4.5053061e-16
1.5987218e-05
-4.8509524e-16
1.5987218e-05
-4.8415237e-16
1.5987218e-05
-1.9129888e-16
1.5987218e-05
4.8471606e-17
1.5987218e-05
4.1756672e-16
1.5987218e-05
4.7697601e-16
1.5987218e-05
5.1549141e-16
1.5987218e-05
2.5937969e-16
1.5987218e-05
1.1252341e-16
1.5987218e-05
-1.609444e-16
1.5987218e-05
-3.383044e-16
1.5987218e-05
-4.3495546e-16
1.5987218e-05
-5.0781159e-16
1.5987218e-05
-4.7895778e-16
1.5987218e-05
-4.6046114e-16
1.5987218e-05
-4.3595099e-16
1.5987218e-05
-5.1739288e-16
1.5987218e-05
-4.8546866e-16
1.5987218e-05
-5.2740153e-16
1.5987218e-05
-4.6147846e-16
1.5987218e-05
-4.8117292e-16
1.5987218e-05
-4.4275232e-16
1.5987218e-05
-4.8881524e-16
1.5987218e-05
-4.7052498e-16
1.5987218e-05
-5.0158286e-16
1.5987218e-05
-4.7656141e-16
1.5987218e-05
-4.9232036e-16
1.5987218e-05
-4.7919147e-16
1.5987218e-05
-4.9948165e-16
1.5987218e-05
-5.0075457e-16
1.5987218e-05
-5.2559288e-16
1.5987218e-05
-5.2764519e-16
1.5987218e-05
-5.5049098e-16
1.5987218e-05
-5.4630107e-16
1.5987218e-05
-5.7125737e-16
1.5987218e-05
-5.5778487e-16
1.5987218e-05
-5.8214772e-16
1.5987218e-05
-5.5735282e-16
1.5987218e-05
-5.7784804e-16
1.5987218e-05
-5.4270134e-16
1.5987218e-05
-5.6486553e-16
1.5987218e-05
-5.2969551e-16
1.5987218e-05
-5.5417166e-16
1.5987218e-05
-5.0803279e-16
1.5987218e-05
-5.3038056e-16
1.5987218e-05
-4.9474556e-16
1.5987218e-05
-5.4924987e-16
1.5987218e-05
-5.2489773e-16
1.5987218e-05
-5.4464005e-16
1.5987218e-05
-4.8292814e-16
1.5987218e-05
-5.4541e-16
1.5987218e-05
-6.0794091e-16
1.5987218e-05
-8.1041806e-16
1.5987218e-05
-7.7501835e-16
1.5987218e-05
-6.9627988e-16
1.5987218e-05
-3.4574246e-16
1.5987218e-05
-1.1487775e-16
1.5987218e-05
2.5321969e-16
1.5987218e-05
3.6110261e-16
1.5987218e-05
5.7480485e-16
1.5987218e-05
5.4638571e-16
1.5987218e-05
4.8752211e-16
1.5987218e-05
2.6516567e-16
1.5987218e-05
4.7993287e-17
1.5987218e-05
-2.0190308e-16
1.5987218e-05
-2.415265e-16
1.5987218e-05
-2.7886788e-16
1.5987218e-05
-2.4358091e-16
1.5987218e-05
-2.9655932e-16
1.5987218e-05
-3.1456308e-16
1.5987218e-05
-3.8595396e-16
1.5987218e-05
-3.961937e-16
1.5987218e-05
-4.387908e-16
1.5987218e-05
-4.1994222e-16
1.5987218e-05
-4.4776713e-16
1.5987218e-05
-4.155593e-16
1.5987218e-05
-4.4465211e-16
1.5987218e-05
-4.0393205e-16
1.5987218e-05
-4.3720239e-16
1.5987218e-05
-3.8745905e-16
1.5987218e-05
-4.1420597e-16
1.5987218e-05
-3.5048663e-16
1.5987218e-05
-3.7048941e-16
1.5987218e-05
-3.1876509e-16
1.5987218e-05
-3.4771201e-16
1.5987218e-05
-3.0663829e-16
1.5987218e-05
-3.1711156e-16
1.5987218e-05
-2.796387e-16
1.5987218e-05
-2.7692811e-16
1.5987218e-05
-2.5754461e-16
1.5987218e-05
-2.4618787e-16
1.5987218e-05
-2.4761042e-16
1.5987218e-05
-2.2167169e-16
1.5987218e-05
-2.4666963e-16
1.5987218e-05
-1.9265958e-16
1.5987218e-05
-2.3163777e-16
1.5987218e-05
-1.5059458e-16
1.5987218e-05
-2.2814641e-16
1.5987218e-05
-1.9284864e-16
1.5987218e-05
-3.1551935e-16
1.5987218e-05
-3.0884201e-16
1.5987218e-05
-4.311687e-16
1.5987218e-05
-4.611087e-16
1.5987218e-05
-6.9701911e-16
1.5987218e-05
-7.5884241e-16
1.5987218e-05
-8.5432733e-16
1.5987218e-05
-6.036479e-16
1.5987218e-05
-3.8091138e-16
1.5987218e-05
7.4619657e-17
1.5987218e-05
2.6786966e-16
1.5987218e-05
3.565237e-16
1.5987218e-05
1.2556884e-16
1.5987218e-05
-4.7798866e-17
1.5987218e-05
-2.6306904e-16
1.5987218e-05
-2.8080267e-16
1.5987218e-05
-3.5320939e-16
1.5987218e-05
-3.8626573e-16
1.5987218e-05
-5.3095227e-16
1.5987218e-05
-4.9174349e-16
1.5987218e-05
-4.0443219e-16
1.5987218e-05
-1.2339601e-16
1.5987218e-05
5.3589892e-17
1.5987218e-05
2.2789725e-16
1.5987218e-05
2.4260776e-16
1.5987218e-05
3.4610215e-16
1.5987218e-05
3.9907548e-16
1.5987218e-05
4.4709242e-16
1.5987218e-05
3.1304654e-16
1.5987218e-05
1.3368183e-16
1.5987218e-05
-1.6383829e-16
1.5987218e-05
-4.0665029e-16
1.5987218e-05
-5.8798948e-16
1.5987218e-05
-5.7412721e-16
1.5987218e-05
-4.2824633e-16
1.5987218e-05
-1.6758678e-16
1.5987218e-05
3.0829331e-17
1.5987218e-05
1.6238241e-16
1.5987218e-05
2.373665e-16
1.5987218e-05
3.406835e-16
1.5987218e-05
4.7220155e-16
1.5987218e-05
5.0491233e-16
1.5987218e-05
3.5905277e-16
1.5987218e-05
9.2752415e-18
1.5987218e-05
-3.4072239e-16
1.5987218e-05
-5.2331647e-16
1.5987218e-05
-4.312948e-16
1.5987218e-05
-1.0687989e-16
1.5987218e-05
2.5554135e-16
1.5987218e-05
4.7764475e-16
1.5987218e-05
4.4527066e-16
1.5987218e-05
1.4882338e-16
1.5987218e-05
-2.2403795e-16
1.5987218e-05
-5.3611911e-16
1.5987218e-05
-5.6816782e-16
1.5987218e-05
-3.8672664e-16
1.5987218e-05
-1.00279e-16
1.5987218e-05
1.8011079e-16
1.5987218e-05
4.0362153e-16
1.5987218e-05
5.0188761e-16
1.5987218e-05
4.9912486e-16
1.5987218e-05
3.1741811e-16
1.5987218e-05
7.418754e-17
1.5987218e-05
-2.7674238e-16
1.5987218e-05
-5.1366562e-16
1.5987218e-05
-5.7980691e-16
1.5987218e-05
-3.5718892e-16
1.5987218e-05
1.0025534e-17
1.5987218e-05
3.6825031e-16
1.5987218e-05
4.7272145e-16
1.5987218e-05
2.8607252e-16
1.5987218e-05
-1.1377171e-16
1.5987218e-05
-4.672392e-16
1.5987218e-05
-6.1968784e-16
1.5987218e-05
-4.0164002e-16
1.5987218e-05
2.3657101e-17
1.5987218e-05
4.6393112e-16
1.5987218e-05
6.3238727e-16
1.5987218e-05
5.0128969e-16
1.5987218e-05
5.0534921e-17
1.5987218e-05
-3.2898156e-16
1.5987218e-05
-5.6700238e-16
1.5987218e-05
-4.2623807e-16
1.5987218e-05
-5.567353e-17
1.5987218e-05
3.7994491e-16
1.5987218e-05
5.6569736e-16
1.5987218e-05
5.1345637e-16
1.5987218e-05
1.8901322e-16
1.5987218e-05
-1.0286941e-16
1.5987218e-05
-3.3700606e-16
1.5987218e-05
-3.7518021e-16
1.5987218e-05
-3.6731818e-16
1.5987218e-05
-3.2056692e-16
1.5987218e-05
-3.5312596e-16
1.5987218e-05
-3.225782e-16
1.5987218e-05
-3.1055497e-16
1.5987218e-05
-3.3428648e-16
1.5987218e-05
-5.7386532e-16
1.5987218e-05
-6.8031796e-16
1.5987218e-05
-3.6805773e-16
2.243434e-17
0.00014027132
0.00033219464
9.2549244e-05
7.5871562e-05
7.0338073e-05
3.0330322e-05
5.9620314e-05
1.4898929e-05
5.4019642e-05
7.4663345e-06
5.0795344e-05
4.4027646e-06
4.901105e-05
2.376318e-06
4.7964745e-05
1.4156361e-06
4.7384384e-05
7.7184247e-07
4.7052233e-05
4.4627764e-07
4.6872682e-05
2.3797605e-07
4.677453e-05
1.309357e-07
4.6724187e-05
6.6277737e-08
4.6698685e-05
3.3669607e-08
4.6686924e-05
1.5249734e-08
4.6681893e-05
6.4824042e-09
4.6680252e-05
1.9918773e-09
4.6680058e-05
1.4680427e-10
4.6680445e-05
-5.9747071e-10
4.6680961e-05
-7.3645724e-10
4.6681443e-05
-6.7390708e-10
4.6681826e-05
-5.2974084e-10
4.668211e-05
-3.9048473e-10
4.6682309e-05
-2.7202311e-10
4.6682444e-05
-1.8361087e-10
4.6682532e-05
-1.1999998e-10
4.6682589e-05
-7.6761316e-11
4.6682624e-05
-4.7981792e-11
4.6682646e-05
-2.946288e-11
4.6682659e-05
-1.7735009e-11
4.6682667e-05
-1.0487392e-11
4.6682672e-05
-6.0787255e-12
4.6682674e-05
-3.4554853e-12
4.6682676e-05
-1.9200262e-12
4.6682676e-05
-1.040071e-12
4.6682677e-05
-5.4493908e-13
4.6682677e-05
-2.7287913e-13
4.6682677e-05
-1.2862566e-13
4.6682677e-05
-5.5510921e-14
4.6682677e-05
-2.032023e-14
4.6682677e-05
-4.1978126e-15
4.6682677e-05
3.2699382e-15
4.6682677e-05
6.8537403e-15
4.6682677e-05
6.8609273e-15
4.6682677e-05
3.9677595e-15
4.6682677e-05
1.0931897e-15
4.6682677e-05
-4.9542735e-16
4.6682677e-05
-4.2942667e-16
4.6682677e-05
5.4006118e-16
4.6682677e-05
6.5447419e-16
4.6682677e-05
5.7674171e-16
4.6682677e-05
5.1724676e-17
4.6682677e-05
-2.6937734e-16
4.6682677e-05
-7.0003936e-16
4.6682677e-05
-9.2641597e-16
4.6682677e-05
-9.3993988e-16
4.6682677e-05
-9.7615457e-16
4.6682677e-05
-1.3224138e-15
4.6682677e-05
-1.1387562e-15
4.6682677e-05
-1.258111e-15
4.6682677e-05
-8.2466413e-16
4.6682677e-05
-1.0397134e-15
4.6682677e-05
-1.352248e-15
4.6682677e-05
-1.981274e-15
4.6682677e-05
-1.9834666e-15
4.6682677e-05
-1.5334817e-15
4.6682677e-05
-4.3989307e-16
4.6682677e-05
5.2771563e-16
4.6682677e-05
9.8770764e-16
4.6682677e-05
9.18086e-16
4.6682677e-05
8.9825201e-16
4.6682677e-05
5.3182953e-16
4.6682677e-05
7.3654094e-16
4.6682677e-05
8.271274e-16
4.6682677e-05
1.4745336e-15
4.6682677e-05
1.5888427e-15
4.6682677e-05
1.634646e-15
4.6682677e-05
9.1741243e-16
4.6682677e-05
3.9830153e-16
4.6682677e-05
-4.429903e-16
4.6682677e-05
-4.4336355e-16
4.6682677e-05
-7.2490587e-16
4.6682677e-05
-2.6894615e-16
4.6682677e-05
-5.0913718e-16
4.6682677e-05
-2.3409424e-16
4.6682677e-05
-6.813241e-16
4.6682677e-05
-4.7024936e-16
4.6682677e-05
-8.8505236e-16
4.6682677e-05
-5.9484965e-16
4.6682677e-05
-9.4761751e-16
4.6682677e-05
-6.4153732e-16
4.6682677e-05
-9.5920742e-16
4.6682677e-05
-6.5421862e-16
4.6682677e-05
-1.0290345e-15
4.6682677e-05
-7.8744702e-16
4.6682677e-05
-1.0466674e-15
4.6682677e-05
-5.3064549e-16
4.6682677e-05
-7.5345133e-16
4.6682677e-05
-5.9270423e-16
4.6682677e-05
-1.2010266e-15
4.6682677e-05
-1.0177716e-15
4.6682677e-05
-1.2419659e-15
4.6682677e-05
-1.5434148e-16
4.6682677e-05
2.1045833e-16
4.6682677e-05
1.436387e-15
4.6682677e-05
1.3294102e-15
4.6682677e-05
1.607787e-15
4.6682677e-05
6.9957485e-16
4.6682677e-05
4.6197555e-16
4.6682677e-05
-3.0136485e-16
4.6682677e-05
-5.5322929e-16
4.6682677e-05
-8.1936515e-16
4.6682677e-05
-7.9572176e-16
4.6682677e-05
-1.0653587e-15
4.6682677e-05
-6.1133702e-16
4.6682677e-05
-1.0745089e-15
4.6682677e-05
-8.287112e-16
4.6682677e-05
-1.161362e-15
4.6682677e-05
-9.0765533e-16
4.6682677e-05
-1.0468248e-15
4.6682677e-05
-7.9940311e-16
4.6682677e-05
-9.4498065e-16
4.6682677e-05
-8.2222446e-16
4.6682677e-05
-9.9882204e-16
4.6682677e-05
-8.9096517e-16
4.6682677e-05
-1.019519e-15
4.6682677e-05
-8.9545968e-16
4.6682677e-05
-1.01745e-15
4.6682677e-05
-9.2337094e-16
4.6682677e-05
-1.0573255e-15
4.6682677e-05
-9.9369817e-16
4.6682677e-05
-1.1130891e-15
4.6682677e-05
-1.0604829e-15
4.6682677e-05
-1.1512372e-15
4.6682677e-05
-1.1150213e-15
4.6682677e-05
-1.1751558e-15
4.6682677e-05
-1.1457933e-15
4.6682677e-05
-1.169238e-15
4.6682677e-05
-1.1349362e-15
4.6682677e-05
-1.1254375e-15
4.6682677e-05
-1.1007007e-15
4.6682677e-05
-1.0854006e-15
4.6682677e-05
-1.0722851e-15
4.6682677e-05
-1.0264813e-15
4.6682677e-05
-1.0109152e-15
4.6682677e-05
-9.9315832e-16
4.6682677e-05
-1.0667529e-15
4.6682677e-05
-1.0667472e-15
4.6682677e-05
-1.0358693e-15
4.6682677e-05
-9.2142016e-16
4.6682677e-05
-1.025973e-15
4.6682677e-05
-1.2678615e-15
4.6682677e-05
-1.7048908e-15
4.6682677e-05
-1.6954851e-15
4.6682677e-05
-1.3150896e-15
4.6682677e-05
-5.4220354e-16
4.6682677e-05
1.2493689e-16
4.6682677e-05
8.5915613e-16
4.6682677e-05
1.0976834e-15
4.6682677e-05
1.427022e-15
4.6682677e-05
1.1948189e-15
4.6682677e-05
8.8001537e-16
4.6682677e-05
2.1778129e-16
4.6682677e-05
-2.9960192e-16
4.6682677e-05
-7.6946081e-16
4.6682677e-05
-7.5030225e-16
4.6682677e-05
-6.5460524e-16
4.6682677e-05
-5.0562983e-16
4.6682677e-05
-5.2907894e-16
4.6682677e-05
-5.6674805e-16
4.6682677e-05
-7.0275555e-16
4.6682677e-05
-7.5804884e-16
4.6682677e-05
-8.4386481e-16
4.6682677e-05
-8.319644e-16
4.6682677e-05
-8.7317324e-16
4.6682677e-05
-8.2333711e-16
4.6682677e-05
-8.5795927e-16
4.6682677e-05
-7.9212425e-16
4.6682677e-05
-8.3523876e-16
4.6682677e-05
-7.6491359e-16
4.6682677e-05
-7.9091866e-16
4.6682677e-05
-7.0327508e-16
4.6682677e-05
-7.0680794e-16
4.6682677e-05
-6.5833473e-16
4.6682677e-05
-6.890094e-16
4.6682677e-05
-6.5030054e-16
4.6682677e-05
-6.364462e-16
4.6682677e-05
-5.952677e-16
4.6682677e-05
-5.7984064e-16
4.6682677e-05
-5.7643251e-16
4.6682677e-05
-5.5346618e-16
4.6682677e-05
-5.8091387e-16
4.6682677e-05
-5.3107937e-16
4.6682677e-05
-5.9507282e-16
4.6682677e-05
-4.9475835e-16
4.6682677e-05
-5.6524856e-16
4.6682677e-05
-4.0434544e-16
4.6682677e-05
-5.3679565e-16
4.6682677e-05
-4.7981704e-16
4.6682677e-05
-6.7870954e-16
4.6682677e-05
-6.4279924e-16
4.6682677e-05
-8.3368566e-16
4.6682677e-05
-9.6582573e-16
4.6682677e-05
-1.4664401e-15
4.6682677e-05
-1.695165e-15
4.6682677e-05
-1.8095941e-15
4.6682677e-05
-1.1854235e-15
4.6682677e-05
-4.7474866e-16
4.6682677e-05
5.7806316e-16
4.6682677e-05
1.0122337e-15
4.6682677e-05
9.7226916e-16
4.6682677e-05
2.5062219e-16
4.6682677e-05
-3.7849235e-16
4.6682677e-05
-8.8433057e-16
4.6682677e-05
-9.0615951e-16
4.6682677e-05
-9.4139577e-16
4.6682677e-05
-9.8331708e-16
4.6682677e-05
-1.1705446e-15
4.6682677e-05
-1.0360628e-15
4.6682677e-05
-6.4847182e-16
4.6682677e-05
1.7555781e-17
4.6682677e-05
4.6016138e-16
4.6682677e-05
7.6347071e-16
4.6682677e-05
7.6655314e-16
4.6682677e-05
9.2346802e-16
4.6682677e-05
1.0020224e-15
4.6682677e-05
9.7484709e-16
4.6682677e-05
6.1951115e-16
4.6682677e-05
6.3103074e-17
4.6682677e-05
-5.7941836e-16
4.6682677e-05
-1.1346903e-15
4.6682677e-05
-1.4290688e-15
4.6682677e-05
-1.198062e-15
4.6682677e-05
-7.2024041e-16
4.6682677e-05
4.0256774e-17
4.6682677e-05
4.8809226e-16
4.6682677e-05
6.8558883e-16
4.6682677e-05
7.5203937e-16
4.6682677e-05
8.8652186e-16
4.6682677e-05
1.1106477e-15
4.6682677e-05
1.0452342e-15
4.6682677e-05
6.3237701e-16
4.6682677e-05
-3.238018e-16
4.6682677e-05
-1.1259291e-15
4.6682677e-05
-1.3899303e-15
4.6682677e-05
-1.0007727e-15
4.6682677e-05
5.5498906e-17
4.6682677e-05
9.7720094e-16
4.6682677e-05
1.4494883e-15
4.6682677e-05
1.1801183e-15
4.6682677e-05
2.0770313e-16
4.6682677e-05
-8.3277089e-16
4.6682677e-05
-1.5956855e-15
4.6682677e-05
-1.5545163e-15
4.6682677e-05
-8.9489968e-16
4.6682677e-05
-6.943421e-17
4.6682677e-05
7.0289692e-16
4.6682677e-05
1.2343243e-15
4.6682677e-05
1.3722474e-15
4.6682677e-05
1.189917e-15
4.6682677e-05
6.1091257e-16
4.6682677e-05
-1.4303196e-16
4.6682677e-05
-1.0206514e-15
4.6682677e-05
-1.5337247e-15
4.6682677e-05
-1.4754997e-15
4.6682677e-05
-6.977174e-16
4.6682677e-05
3.6838174e-16
4.6682677e-05
1.2801407e-15
4.6682677e-05
1.3663433e-15
4.6682677e-05
6.8720987e-16
4.6682677e-05
-4.9649699e-16
4.6682677e-05
-1.4137773e-15
4.6682677e-05
-1.6515997e-15
4.6682677e-05
-9.4352763e-16
4.6682677e-05
3.216687e-16
4.6682677e-05
1.428006e-15
4.6682677e-05
1.7475622e-15
4.6682677e-05
1.2338229e-15
4.6682677e-05
-8.89241e-17
4.6682677e-05
-1.084344e-15
4.6682677e-05
-1.557076e-15
4.6682677e-05
-1.0996158e-15
4.6682677e-05
9.0731539e-17
4.6682677e-05
1.157526e-15
4.6682677e-05
1.5755214e-15
4.6682677e-05
1.2797056e-15
4.6682677e-05
2.8732913e-16
4.6682677e-05
-5.0049874e-16
4.6682677e-05
-1.0579887e-15
4.6682677e-05
-1.094863e-15
4.6682677e-05
-9.2044134e-16
4.6682677e-05
-7.4929396e-16
4.6682677e-05
-7.0497728e-16
4.6682677e-05
-6.0873847e-16
4.6682677e-05
-4.9096679e-16
4.6682677e-05
-6.0372307e-16
4.6682677e-05
-1.2716999e-15
4.6682677e-05
-1.5684885e-15
4.6682677e-05
-5.2446899e-16
3.5348095e-16
0.00019469214
0.0004041693
0.00014360962
0.00012695409
0.00011230147
6.1638465e-05
9.6619294e-05
3.0581108e-05
8.7762221e-05
1.6323408e-05
8.2755406e-05
9.4095799e-06
7.9871701e-05
5.2600235e-06
7.8206034e-05
3.0813044e-06
7.7256668e-05
1.7212081e-06
7.6718195e-05
9.8475124e-07
7.6420462e-05
5.3570794e-07
7.6258218e-05
2.9317978e-07
7.6172993e-05
1.5150257e-07
7.61296e-05
7.7062438e-08
7.6108851e-05
3.5998363e-08
7.6099695e-05
1.5637922e-08
7.6096324e-05
5.3627369e-09
7.6095587e-05
8.8363868e-10
7.6095937e-05
-9.4662745e-10
7.6096611e-05
-1.4110065e-09
7.609729e-05
-1.3531884e-09
7.6097854e-05
-1.0931866e-09
7.609828e-05
-8.1661348e-10
7.6098584e-05
-5.7552571e-10
7.6098791e-05
-3.9125677e-10
7.6098929e-05
-2.5755494e-10
7.6099018e-05
-1.6560948e-10
7.6099074e-05
-1.0408508e-10
7.6099108e-05
-6.4196215e-11
7.609913e-05
-3.8832279e-11
7.6099142e-05
-2.3071155e-11
7.609915e-05
-1.3445229e-11
7.6099154e-05
-7.6846588e-12
7.6099156e-05
-4.296441e-12
7.6099157e-05
-2.3431257e-12
7.6099158e-05
-1.2387149e-12
7.6099158e-05
-6.2874325e-13
7.6099159e-05
-3.019315e-13
7.6099159e-05
-1.3340709e-13
7.6099159e-05
-5.0468585e-14
7.6099159e-05
-1.1959027e-14
7.6099159e-05
4.9258347e-15
7.6099159e-05
1.1330989e-14
7.6099159e-05
1.1528718e-14
7.6099159e-05
7.9763999e-15
7.6099159e-05
4.3658567e-15
7.6099159e-05
2.0901759e-15
7.6099159e-05
1.6094202e-15
7.6099159e-05
1.8509018e-15
7.6099159e-05
1.6622176e-15
7.6099159e-05
1.1819049e-15
7.6099159e-05
4.8766817e-16
7.6099159e-05
-7.9045515e-17
7.6099159e-05
-5.9744076e-16
7.6099159e-05
-9.0328236e-16
7.6099159e-05
-9.0955937e-16
7.6099159e-05
-9.3974413e-16
7.6099159e-05
-1.1517426e-15
7.6099159e-05
-1.0394584e-15
7.6099159e-05
-1.0074424e-15
7.6099159e-05
-7.2415919e-16
7.6099159e-05
-8.9245314e-16
7.6099159e-05
-1.2960331e-15
7.6099159e-05
-1.851965e-15
7.6099159e-05
-1.9194769e-15
7.6099159e-05
-1.432022e-15
7.6099159e-05
-4.4032173e-16
7.6099159e-05
5.1843281e-16
7.6099159e-05
9.3288243e-16
7.6099159e-05
9.1753057e-16
7.6099159e-05
8.2168437e-16
7.6099159e-05
5.4195993e-16
7.6099159e-05
6.5476954e-16
7.6099159e-05
8.0932563e-16
7.6099159e-05
1.3375804e-15
7.6099159e-05
1.4770062e-15
7.6099159e-05
1.4685272e-15
7.6099159e-05
8.1700631e-16
7.6099159e-05
3.2989291e-16
7.6099159e-05
-3.9874777e-16
7.6099159e-05
-3.9135879e-16
7.6099159e-05
-5.9008055e-16
7.6099159e-05
-1.7864683e-16
7.6099159e-05
-3.5876417e-16
7.6099159e-05
-1.2339847e-16
7.6099159e-05
-5.0335903e-16
7.6099159e-05
-3.3553643e-16
7.6099159e-05
-6.8821339e-16
7.6099159e-05
-4.5759443e-16
7.6099159e-05
-7.5147438e-16
7.6099159e-05
-5.1352912e-16
7.6099159e-05
-7.7092498e-16
7.6099159e-05
-5.4672487e-16
7.6099159e-05
-8.4701417e-16
7.6099159e-05
-6.7596609e-16
7.6099159e-05
-8.3519765e-16
7.6099159e-05
-4.2636513e-16
7.6099159e-05
-5.4952034e-16
7.6099159e-05
-4.7221402e-16
7.6099159e-05
-9.203968e-16
7.6099159e-05
-7.8146312e-16
7.6099159e-05
-8.3510353e-16
7.6099159e-05
8.5085327e-17
7.6099159e-05
5.0808331e-16
7.6099159e-05
1.5108211e-15
7.6099159e-05
1.4206104e-15
7.6099159e-05
1.5287566e-15
7.6099159e-05
6.2746645e-16
7.6099159e-05
2.7061655e-16
7.6099159e-05
-4.9833565e-16
7.6099159e-05
-7.7672743e-16
7.6099159e-05
-9.798043e-16
7.6099159e-05
-9.4012146e-16
7.6099159e-05
-1.0305334e-15
7.6099159e-05
-6.8532932e-16
7.6099159e-05
-8.7939327e-16
7.6099159e-05
-7.8024839e-16
7.6099159e-05
-9.534791e-16
7.6099159e-05
-8.4559861e-16
7.6099159e-05
-8.9349535e-16
7.6099159e-05
-7.6699449e-16
7.6099159e-05
-8.3601245e-16
7.6099159e-05
-7.9786041e-16
7.6099159e-05
-9.0442186e-16
7.6099159e-05
-8.622714e-16
7.6099159e-05
-9.3509406e-16
7.6099159e-05
-8.6778705e-16
7.6099159e-05
-9.4676782e-16
7.6099159e-05
-9.0086182e-16
7.6099159e-05
-1.0007048e-15
7.6099159e-05
-9.7805194e-16
7.6099159e-05
-1.0681622e-15
7.6099159e-05
-1.0517521e-15
7.6099159e-05
-1.1154399e-15
7.6099159e-05
-1.111457e-15
7.6099159e-05
-1.1403904e-15
7.6099159e-05
-1.1392425e-15
7.6099159e-05
-1.1284202e-15
7.6099159e-05
-1.1198201e-15
7.6099159e-05
-1.0742989e-15
7.6099159e-05
-1.0751518e-15
7.6099159e-05
-1.0207834e-15
7.6099159e-05
-1.0336154e-15
7.6099159e-05
-9.5045038e-16
7.6099159e-05
-9.6860221e-16
7.6099159e-05
-9.1450203e-16
7.6099159e-05
-1.0172091e-15
7.6099159e-05
-9.7945541e-16
7.6099159e-05
-9.9418371e-16
7.6099159e-05
-8.7407709e-16
7.6099159e-05
-1.0329133e-15
7.6099159e-05
-1.2345287e-15
7.6099159e-05
-1.6884996e-15
7.6099159e-05
-1.5819443e-15
7.6099159e-05
-1.2722483e-15
7.6099159e-05
-4.351685e-16
7.6099159e-05
1.1714027e-16
7.6099159e-05
8.7213502e-16
7.6099159e-05
1.016995e-15
7.6099159e-05
1.342396e-15
7.6099159e-05
1.0660627e-15
7.6099159e-05
7.771985e-16
7.6099159e-05
1.4478453e-16
7.6099159e-05
-2.9046542e-16
7.6099159e-05
-7.298567e-16
7.6099159e-05
-6.4678168e-16
7.6099159e-05
-5.8359112e-16
7.6099159e-05
-3.923824e-16
7.6099159e-05
-4.4086511e-16
7.6099159e-05
-4.4364699e-16
7.6099159e-05
-5.9970272e-16
7.6099159e-05
-6.2861202e-16
7.6099159e-05
-7.4020415e-16
7.6099159e-05
-7.0630843e-16
7.6099159e-05
-7.7355922e-16
7.6099159e-05
-6.9950253e-16
7.6099159e-05
-7.5875919e-16
7.6099159e-05
-6.6678214e-16
7.6099159e-05
-7.3332912e-16
7.6099159e-05
-6.3309801e-16
7.6099159e-05
-6.8089223e-16
7.6099159e-05
-5.5910223e-16
7.6099159e-05
-5.8729615e-16
7.6099159e-05
-5.0254811e-16
7.6099159e-05
-5.505343e-16
7.6099159e-05
-4.8106568e-16
7.6099159e-05
-4.804076e-16
7.6099159e-05
-4.2175783e-16
7.6099159e-05
-4.0827436e-16
7.6099159e-05
-3.9635511e-16
7.6099159e-05
-3.671297e-16
7.6099159e-05
-3.9669647e-16
7.6099159e-05
-3.3463803e-16
7.6099159e-05
-4.1354413e-16
7.6099159e-05
-2.9074799e-16
7.6099159e-05
-3.8800643e-16
7.6099159e-05
-2.0081376e-16
7.6099159e-05
-3.7686302e-16
7.6099159e-05
-2.9640414e-16
7.6099159e-05
-5.6226653e-16
7.6099159e-05
-5.3392954e-16
7.6099159e-05
-8.1563225e-16
7.6099159e-05
-9.2331951e-16
7.6099159e-05
-1.4673132e-15
7.6099159e-05
-1.6004299e-15
7.6099159e-05
-1.7201743e-15
7.6099159e-05
-1.0471326e-15
7.6099159e-05
-4.1696747e-16
7.6099159e-05
5.8922948e-16
7.6099159e-05
8.8768249e-16
7.6099159e-05
8.3645244e-16
7.6099159e-05
9.1138418e-17
7.6099159e-05
-4.5396316e-16
7.6099159e-05
-9.3258109e-16
7.6099159e-05
-8.8850247e-16
7.6099159e-05
-9.228732e-16
7.6099159e-05
-9.0781112e-16
7.6099159e-05
-1.0774786e-15
7.6099159e-05
-8.7551781e-16
7.6099159e-05
-5.1277955e-16
7.6099159e-05
1.4901451e-16
7.6099159e-05
5.250021e-16
7.6099159e-05
8.0226254e-16
7.6099159e-05
7.537321e-16
7.6099159e-05
8.8240593e-16
7.6099159e-05
8.9461386e-16
7.6099159e-05
8.6089806e-16
7.6099159e-05
4.7913321e-16
7.6099159e-05
-1.3045761e-17
7.6099159e-05
-6.296119e-16
7.6099159e-05
-1.0893989e-15
7.6099159e-05
-1.3196161e-15
7.6099159e-05
-1.0674399e-15
7.6099159e-05
-5.824539e-16
7.6099159e-05
1.0980914e-16
7.6099159e-05
5.0078064e-16
7.6099159e-05
6.7305112e-16
7.6099159e-05
7.037836e-16
7.6099159e-05
8.2485376e-16
7.6099159e-05
9.884289e-16
7.6099159e-05
9.1179505e-16
7.6099159e-05
4.6547265e-16
7.6099159e-05
-3.9416622e-16
7.6099159e-05
-1.1156676e-15
7.6099159e-05
-1.3013953e-15
7.6099159e-05
-8.6328127e-16
7.6099159e-05
1.057476e-16
7.6099159e-05
9.4985222e-16
7.6099159e-05
1.32196e-15
7.6099159e-05
9.7527184e-16
7.6099159e-05
4.4278197e-17
7.6099159e-05
-9.4893961e-16
7.6099159e-05
-1.6016709e-15
7.6099159e-05
-1.4913759e-15
7.6099159e-05
-8.4649354e-16
7.6099159e-05
-3.1795981e-17
7.6099159e-05
6.8147382e-16
7.6099159e-05
1.1513069e-15
7.6099159e-05
1.2337657e-15
7.6099159e-05
1.0248645e-15
7.6099159e-05
4.3000204e-16
7.6099159e-05
-2.7180532e-16
7.6099159e-05
-1.0903489e-15
7.6099159e-05
-1.4795848e-15
7.6099159e-05
-1.3715944e-15
7.6099159e-05
-5.7651601e-16
7.6099159e-05
4.1146698e-16
7.6099159e-05
1.2231688e-15
7.6099159e-05
1.2249373e-15
7.6099159e-05
5.4037087e-16
7.6099159e-05
-5.8250884e-16
7.6099159e-05
-1.3719966e-15
7.6099159e-05
-1.532258e-15
7.6099159e-05
-7.6373584e-16
7.6099159e-05
4.2129258e-16
7.6099159e-05
1.4590585e-15
7.6099159e-05
1.6803347e-15
7.6099159e-05
1.143357e-15
7.6099159e-05
-1.0447414e-16
7.6099159e-05
-1.0116819e-15
7.6099159e-05
-1.4158827e-15
7.6099159e-05
-8.8905041e-16
7.6099159e-05
1.795194e-16
7.6099159e-05
1.1933811e-15
7.6099159e-05
1.4977547e-15
7.6099159e-05
1.1557719e-15
7.6099159e-05
2.1724721e-16
7.6099159e-05
-5.262141e-16
7.6099159e-05
-1.0257151e-15
7.6099159e-05
-1.0157118e-15
7.6099159e-05
-8.5790407e-16
7.6099159e-05
-6.5940222e-16
7.6099159e-05
-6.2177447e-16
7.6099159e-05
-4.9968704e-16
7.6099159e-05
-4.2211046e-16
7.6099159e-05
-5.3784437e-16
7.6099159e-05
-1.1523799e-15
7.6099159e-05
-1.350375e-15
7.6099159e-05
-4.3651551e-16
3.6600049e-16
0.00023312986
0.00043770623
0.00018548527
0.00017459868
0.00015018421
9.6939516e-05
0.0001310242
4.9741117e-05
0.00011965162
2.7695987e-05
0.0001131446
1.5916605e-05
0.00010931814
9.0864882e-06
0.00010710183
5.2976179e-06
0.0001058215
3.0015466e-06
0.00010509347
1.7127789e-06
0.00010468612
9.4305172e-07
0.00010446306
5.1623572e-07
0.00010434425
2.7031461e-07
0.00010428311
1.3819596e-07
0.00010425319
6.5916382e-08
0.00010423959
2.9236263e-08
0.0001042342
1.0753654e-08
0.00010423268
2.4052964e-09
0.00010423281
-1.0808398e-09
0.00010423352
-2.1167627e-09
0.00010423431
-2.1448323e-09
0.000104235
-1.7800342e-09
0.00010423553
-1.348531e-09
0.00010423592
-9.6066287e-10
0.00010423618
-6.57771e-10
0.00010423636
-4.3578652e-10
0.00010423648
-2.8159837e-10
0.00010423655
-1.7783086e-10
0.0001042366
-1.101299e-10
0.00010423662
-6.6900877e-11
0.00010423664
-3.9911214e-11
0.00010423665
-2.3363196e-11
0.00010423666
-1.3414578e-11
0.00010423666
-7.5384142e-12
0.00010423666
-4.13529e-12
0.00010423666
-2.2023505e-12
0.00010423666
-1.1289529e-12
0.00010423666
-5.4957277e-13
0.00010423666
-2.4783057e-13
0.00010423666
-9.7326125e-14
0.00010423666
-2.6324986e-14
0.00010423666
4.7132766e-15
0.00010423666
1.6035113e-14
0.00010423666
1.6549502e-14
0.00010423666
1.2231762e-14
0.00010423666
8.4305595e-15
0.00010423666
6.3075363e-15
0.00010423666
5.5307651e-15
0.00010423666
5.2210699e-15
0.00010423666
4.1602152e-15
0.00010423666
3.3096177e-15
0.00010423666
2.1195968e-15
0.00010423666
1.3146978e-15
0.00010423666
5.3755896e-16
0.00010423666
2.2307744e-16
0.00010423666
5.594278e-17
0.00010423666
-1.8786239e-17
0.00010423666
-3.1384578e-16
0.00010423666
7.2151739e-17
0.00010423666
-1.1431022e-16
0.00010423666
2.0064656e-16
0.00010423666
-2.2319189e-16
0.00010423666
-5.2138169e-16
0.00010423666
-1.040641e-15
0.00010423666
-7.9922344e-16
0.00010423666
-3.5790814e-16
0.00010423666
4.59229e-16
0.00010423666
9.3846507e-16
0.00010423666
9.5258954e-16
0.00010423666
5.8129699e-16
0.00010423666
4.2297289e-16
0.00010423666
-4.350978e-17
0.00010423666
1.4685631e-16
0.00010423666
8.9736113e-17
0.00010423666
5.6334263e-16
0.00010423666
3.8835868e-16
0.00010423666
3.5420874e-16
0.00010423666
-2.4144646e-16
0.00010423666
-3.450778e-16
0.00010423666
-7.6639464e-16
0.00010423666
-3.1422203e-16
0.00010423666
-4.3745721e-16
0.00010423666
2.4125036e-16
0.00010423666
3.0873204e-17
0.00010423666
5.1681995e-16
0.00010423666
7.7962049e-17
0.00010423666
4.4226608e-16
0.00010423666
-4.5992953e-17
0.00010423666
3.320289e-16
0.00010423666
-1.305779e-16
0.00010423666
2.5911026e-16
0.00010423666
-1.701545e-16
0.00010423666
2.0312305e-16
0.00010423666
-2.7229651e-16
0.00010423666
1.0502891e-16
0.00010423666
-2.0727829e-16
0.00010423666
3.9061306e-16
0.00010423666
-4.5657982e-18
0.00010423666
2.7318729e-16
0.00010423666
-2.6245213e-16
0.00010423666
3.227995e-16
0.00010423666
1.7893327e-16
0.00010423666
1.3114257e-15
0.00010423666
1.1336491e-15
0.00010423666
2.0107235e-15
0.00010423666
1.3353294e-15
0.00010423666
1.4855635e-15
0.00010423666
2.6176054e-16
0.00010423666
7.0887416e-17
0.00010423666
-6.7924784e-16
0.00010423666
-6.0911029e-16
0.00010423666
-6.9691497e-16
0.00010423666
-4.1675375e-16
0.00010423666
-6.3669505e-16
0.00010423666
1.517997e-16
0.00010423666
-2.5450226e-16
0.00010423666
2.4878369e-16
0.00010423666
-1.8774784e-16
0.00010423666
1.3474782e-16
0.00010423666
-1.7449117e-16
0.00010423666
1.1772713e-16