/*--------------------------------*- C++ -*----------------------------------*\
| =========                 |                                                 |
| \\      /  F ield         | OpenFOAM: The Open Source CFD Toolbox           |
|  \\    /   O peration     | Version:  2206                                  |
|   \\  /    A nd           | Website:  www.openfoam.com                      |
|    \\/     M anipulation  |                                                 |
\*---------------------------------------------------------------------------*/
FoamFile
{
    version     2.0;
    format      ascii;
    arch        "LSB;label=32;scalar=64";
    class       volVectorField;
    location    "7";
    object      U;
}
// * * * * * * * * * * * * * * * * * * * * * * * * * * * * * * * * * * * * * //

dimensions      [0 1 -1 0 0 0 0];

internalField   nonuniform List<vector> 
15000
(
(0.15962853 0.053997678 0)
(0.11557193 0.0064916412 0)
(0.064251361 0.0014144203 0)
(0.055918598 0.0007495995 0)
(0.047595816 0.00028826677 0)
(0.044708798 0.00019884141 0)
(0.042412494 9.0520969e-05 0)
(0.041406638 6.0128081e-05 0)
(0.040707476 2.8980824e-05 0)
(0.04037699 1.8021791e-05 0)
(0.040167797 8.6641893e-06 0)
(0.040068659 4.997348e-06 0)
(0.040011053 2.2686337e-06 0)
(0.039985308 1.1744309e-06 0)
(0.039971973 4.4704836e-07 0)
(0.039967049 1.7411036e-07 0)
(0.03996518 1.421263e-08 0)
(0.039965127 -3.0162712e-08 0)
(0.039965544 -4.8693665e-08 0)
(0.039966152 -4.3295348e-08 0)
(0.03996668 -3.5800439e-08 0)
(0.039967111 -2.6081348e-08 0)
(0.039967422 -1.8564891e-08 0)
(0.039967642 -1.2462359e-08 0)
(0.03996779 -8.236314e-09 0)
(0.039967887 -5.2519791e-09 0)
(0.039967949 -3.3050142e-09 0)
(0.039967988 -2.0266809e-09 0)
(0.039968012 -1.2261753e-09 0)
(0.039968026 -7.2489983e-10 0)
(0.039968035 -4.2136844e-10 0)
(0.03996804 -2.3936267e-10 0)
(0.039968042 -1.3345192e-10 0)
(0.039968044 -7.2535592e-11 0)
(0.039968045 -3.8329857e-11 0)
(0.039968045 -1.9447989e-11 0)
(0.039968045 -9.2968177e-12 0)
(0.039968046 -4.1358822e-12 0)
(0.039968046 -1.6360185e-12 0)
(0.039968046 -5.040287e-13 0)
(0.039968046 -4.6989051e-14 0)
(0.039968046 2.100305e-13 0)
(0.039968046 4.1081735e-13 0)
(0.039968046 5.304716e-13 0)
(0.039968046 3.021277e-13 0)
(0.039968046 -9.9440277e-14 0)
(0.039968046 -3.3585178e-13 0)
(0.039968046 -3.6101729e-13 0)
(0.039968046 -2.3765238e-13 0)
(0.039968046 -1.9162421e-13 0)
(0.039968046 -1.9100499e-13 0)
(0.039968046 -2.1199992e-13 0)
(0.039968046 -2.2246253e-13 0)
(0.039968046 -2.3865824e-13 0)
(0.039968046 -2.618322e-13 0)
(0.039968046 -2.3906147e-13 0)
(0.039968046 -2.3539752e-13 0)
(0.039968046 -2.5556338e-13 0)
(0.039968046 -2.5379743e-13 0)
(0.039968046 -2.3895281e-13 0)
(0.039968046 -1.9105564e-13 0)
(0.039968046 -1.9251769e-13 0)
(0.039968046 -2.423623e-13 0)
(0.039968046 -3.2164457e-13 0)
(0.039968046 -3.5428576e-13 0)
(0.039968046 -3.0122109e-13 0)
(0.039968046 -1.6305412e-13 0)
(0.039968046 1.6831868e-14 0)
(0.039968046 1.141191e-13 0)
(0.039968046 1.5254524e-13 0)
(0.039968046 1.6903402e-13 0)
(0.039968046 1.5257368e-13 0)
(0.039968046 1.7410993e-13 0)
(0.039968046 2.0463352e-13 0)
(0.039968046 2.8882685e-13 0)
(0.039968046 3.3072676e-13 0)
(0.039968046 3.4684548e-13 0)
(0.039968046 2.5733332e-13 0)
(0.039968046 1.7304704e-13 0)
(0.039968046 1.1352906e-14 0)
(0.039968046 -2.3549198e-14 0)
(0.039968046 -8.4367758e-14 0)
(0.039968046 -5.6626238e-14 0)
(0.039968046 -1.0483538e-13 0)
(0.039968046 -9.4694598e-14 0)
(0.039968046 -1.5600495e-13 0)
(0.039968046 -1.3995919e-13 0)
(0.039968046 -1.8595095e-13 0)
(0.039968046 -1.5355814e-13 0)
(0.039968046 -1.8888394e-13 0)
(0.039968046 -1.5808451e-13 0)
(0.039968046 -1.8861828e-13 0)
(0.039968046 -1.5890661e-13 0)
(0.039968046 -1.9278646e-13 0)
(0.039968046 -1.7716443e-13 0)
(0.039968046 -1.9923626e-13 0)
(0.039968046 -1.5225215e-13 0)
(0.039968046 -1.519397e-13 0)
(0.039968046 -1.4061498e-13 0)
(0.039968046 -2.0197922e-13 0)
(0.039968046 -2.1807956e-13 0)
(0.039968046 -2.4352369e-13 0)
(0.039968046 -1.3737264e-13 0)
(0.039968046 -5.6982862e-14 0)
(0.039968046 1.0992027e-13 0)
(0.039968046 1.4289914e-13 0)
(0.039968046 1.8557373e-13 0)
(0.039968046 1.0806781e-13 0)
(0.039968046 8.2446944e-14 0)
(0.039968046 -1.2153312e-14 0)
(0.039968046 -7.9030456e-14 0)
(0.039968046 -1.3280307e-13 0)
(0.039968046 -1.7195312e-13 0)
(0.039968046 -1.9139026e-13 0)
(0.039968046 -1.8311359e-13 0)
(0.039968046 -2.0536739e-13 0)
(0.039968046 -2.2017073e-13 0)
(0.039968046 -2.2533711e-13 0)
(0.039968046 -2.2361352e-13 0)
(0.039968046 -2.1071631e-13 0)
(0.039968046 -2.0638187e-13 0)
(0.039968046 -2.0330335e-13 0)
(0.039968046 -2.1185472e-13 0)
(0.039968046 -2.1330846e-13 0)
(0.039968046 -2.1592656e-13 0)
(0.039968046 -2.1249977e-13 0)
(0.039968046 -2.1056339e-13 0)
(0.039968046 -2.1046682e-13 0)
(0.039968046 -2.1165379e-13 0)
(0.039968046 -2.1598105e-13 0)
(0.039968046 -2.1949371e-13 0)
(0.039968046 -2.2343605e-13 0)
(0.039968046 -2.267336e-13 0)
(0.039968046 -2.2864026e-13 0)
(0.039968046 -2.3319983e-13 0)
(0.039968046 -2.3228857e-13 0)
(0.039968046 -2.3717133e-13 0)
(0.039968046 -2.3272194e-13 0)
(0.039968046 -2.3674154e-13 0)
(0.039968046 -2.2890523e-13 0)
(0.039968046 -2.3346307e-13 0)
(0.039968046 -2.2589902e-13 0)
(0.039968046 -2.3156167e-13 0)
(0.039968046 -2.2036217e-13 0)
(0.039968046 -2.2384227e-13 0)
(0.039968046 -2.1522574e-13 0)
(0.039968046 -2.3046132e-13 0)
(0.039968046 -2.2778808e-13 0)
(0.039968046 -2.3082685e-13 0)
(0.039968046 -2.0985499e-13 0)
(0.039968046 -2.1839141e-13 0)
(0.039968046 -2.4083189e-13 0)
(0.039968046 -3.1272501e-13 0)
(0.039968046 -3.1931498e-13 0)
(0.039968046 -2.932993e-13 0)
(0.039968046 -1.890601e-13 0)
(0.039968046 -7.5169217e-14 0)
(0.039968046 6.6303393e-14 0)
(0.039968046 1.2645206e-13 0)
(0.039968046 2.1282291e-13 0)
(0.039968046 2.2906239e-13 0)
(0.039968046 2.1894013e-13 0)
(0.039968046 1.4811228e-13 0)
(0.039968046 4.2630532e-14 0)
(0.039968046 -5.9471045e-14 0)
(0.039968046 -9.2446351e-14 0)
(0.039968046 -1.1794249e-13 0)
(0.039968046 -1.2011439e-13 0)
(0.039968046 -1.4401756e-13 0)
(0.039968046 -1.5727773e-13 0)
(0.039968046 -1.8151034e-13 0)
(0.039968046 -1.8668636e-13 0)
(0.039968046 -1.9815342e-13 0)
(0.039968046 -1.9239713e-13 0)
(0.039968046 -1.99095e-13 0)
(0.039968046 -1.8980571e-13 0)
(0.039968046 -1.9764769e-13 0)
(0.039968046 -1.8614691e-13 0)
(0.039968046 -1.9502616e-13 0)
(0.039968046 -1.8165852e-13 0)
(0.039968046 -1.8833217e-13 0)
(0.039968046 -1.7133714e-13 0)
(0.039968046 -1.7503534e-13 0)
(0.039968046 -1.620835e-13 0)
(0.039968046 -1.7047997e-13 0)
(0.039968046 -1.6141435e-13 0)
(0.039968046 -1.6364558e-13 0)
(0.039968046 -1.5363986e-13 0)
(0.039968046 -1.5159527e-13 0)
(0.039968046 -1.4624592e-13 0)
(0.039968046 -1.4277452e-13 0)
(0.039968046 -1.4361792e-13 0)
(0.039968046 -1.369875e-13 0)
(0.039968046 -1.4443705e-13 0)
(0.039968046 -1.3021871e-13 0)
(0.039968046 -1.3987823e-13 0)
(0.039968046 -1.1701112e-13 0)
(0.039968046 -1.361611e-13 0)
(0.039968046 -1.2638109e-13 0)
(0.039968046 -1.5851738e-13 0)
(0.039968046 -1.5425278e-13 0)
(0.039968046 -1.8034165e-13 0)
(0.039968046 -1.8750087e-13 0)
(0.039968046 -2.6077172e-13 0)
(0.039968046 -2.9876239e-13 0)
(0.039968046 -3.3883541e-13 0)
(0.039968046 -2.6784302e-13 0)
(0.039968046 -1.9146519e-13 0)
(0.039968046 6.395249e-15 0)
(0.039968046 1.0233589e-13 0)
(0.039968046 1.5716314e-13 0)
(0.039968046 9.7733512e-14 0)
(0.039968046 2.9760361e-14 0)
(0.039968046 -6.096744e-14 0)
(0.039968046 -8.8123022e-14 0)
(0.039968046 -1.2420798e-13 0)
(0.039968046 -1.5681805e-13 0)
(0.039968046 -2.237646e-13 0)
(0.039968046 -2.3417849e-13 0)
(0.039968046 -2.1403641e-13 0)
(0.039968046 -1.18773e-13 0)
(0.039968046 -2.1648454e-14 0)
(0.039968046 5.7003369e-14 0)
(0.039968046 8.1240087e-14 0)
(0.039968046 1.3545402e-13 0)
(0.039968046 1.7900149e-13 0)
(0.039968046 2.128391e-13 0)
(0.039968046 1.8028847e-13 0)
(0.039968046 1.2039205e-13 0)
(0.039968046 -1.1027218e-14 0)
(0.039968046 -1.2082766e-13 0)
(0.039968046 -2.0978119e-13 0)
(0.039968046 -2.3493627e-13 0)
(0.039968046 -2.0430027e-13 0)
(0.039968046 -1.0963895e-13 0)
(0.039968046 -1.3353927e-14 0)
(0.039968046 4.5877232e-14 0)
(0.039968046 8.487768e-14 0)
(0.039968046 1.3617972e-13 0)
(0.039968046 2.0209593e-13 0)
(0.039968046 2.3463604e-13 0)
(0.039968046 2.0276243e-13 0)
(0.039968046 6.1248172e-14 0)
(0.039968046 -9.0662699e-14 0)
(0.039968046 -1.8814949e-13 0)
(0.039968046 -1.8374172e-13 0)
(0.039968046 -8.0676508e-14 0)
(0.039968046 6.8576223e-14 0)
(0.039968046 1.7452241e-13 0)
(0.039968046 1.9162571e-13 0)
(0.039968046 1.124939e-13 0)
(0.039968046 -3.5110637e-14 0)
(0.039968046 -1.6797688e-13 0)
(0.039968046 -2.0814953e-13 0)
(0.039968046 -1.6356305e-13 0)
(0.039968046 -7.5067797e-14 0)
(0.039968046 4.2339043e-14 0)
(0.039968046 1.3313559e-13 0)
(0.039968046 1.9044671e-13 0)
(0.039968046 2.1029071e-13 0)
(0.039968046 1.6943688e-13 0)
(0.039968046 8.8602865e-14 0)
(0.039968046 -5.9260734e-14 0)
(0.039968046 -1.7028288e-13 0)
(0.039968046 -2.2733212e-13 0)
(0.039968046 -1.7894243e-13 0)
(0.039968046 -4.0656488e-14 0)
(0.039968046 1.1088385e-13 0)
(0.039968046 1.8065471e-13 0)
(0.039968046 1.3902702e-13 0)
(0.039968046 5.0630437e-15 0)
(0.039968046 -1.4341106e-13 0)
(0.039968046 -2.2871476e-13 0)
(0.039968046 -1.7773968e-13 0)
(0.039968046 -3.800379e-14 0)
(0.039968046 1.3603998e-13 0)
(0.039968046 2.298496e-13 0)
(0.039968046 2.0475266e-13 0)
(0.039968046 5.5250508e-14 0)
(0.039968046 -1.0135496e-13 0)
(0.039968046 -2.131451e-13 0)
(0.039968046 -1.9130844e-13 0)
(0.039968046 -6.9647535e-14 0)
(0.039968046 1.0187312e-13 0)
(0.039968046 1.9883014e-13 0)
(0.039968046 2.0281595e-13 0)
(0.039968046 1.0914542e-13 0)
(0.039968046 -1.1165323e-14 0)
(0.039968046 -1.0577709e-13 0)
(0.039968046 -1.3558427e-13 0)
(0.039968046 -1.4207705e-13 0)
(0.039968046 -1.3860988e-13 0)
(0.039968046 -1.5918384e-13 0)
(0.039968046 -1.6081559e-13 0)
(0.039968046 -1.5375649e-13 0)
(0.039968046 -1.5313972e-13 0)
(0.039968046 -2.3296494e-13 0)
(0.039968046 -2.9677566e-13 0)
(0.039968046 -1.9832181e-13 0)
(0.039968046 -1.9288764e-14 0)
(0.36732383 0.14062829 0)
(0.29754389 0.025079383 0)
(0.1860793 0.0083694614 0)
(0.16132807 0.0041218726 0)
(0.13901859 0.0019375761 0)
(0.13040448 0.0011770189 0)
(0.12396461 0.00061112461 0)
(0.12095998 0.00037191715 0)
(0.1189454 0.00019726638 0)
(0.11794826 0.00011564349 0)
(0.11733081 6.0263222e-05 0)
(0.11702581 3.3418748e-05 0)
(0.11685065 1.65141e-05 0)
(0.11676842 8.3943224e-06 0)
(0.1167257 3.6641525e-06 0)
(0.11670834 1.5212385e-06 0)
(0.1167012 3.9955533e-07 0)
(0.11669986 -2.8101531e-08 0)
(0.1167004 -1.9912159e-07 0)
(0.11670175 -2.1599437e-07 0)
(0.11670304 -1.9041855e-07 0)
(0.11670415 -1.460991e-07 0)
(0.11670497 -1.0643487e-07 0)
(0.11670557 -7.3334318e-08 0)
(0.11670597 -4.917413e-08 0)
(0.11670624 -3.1914627e-08 0)
(0.11670642 -2.031566e-08 0)
(0.11670653 -1.2631149e-08 0)
(0.11670659 -7.7229583e-09 0)
(0.11670664 -4.6262137e-09 0)
(0.11670666 -2.723208e-09 0)
(0.11670667 -1.5701403e-09 0)
(0.11670668 -8.8786537e-10 0)
(0.11670669 -4.90339e-10 0)
(0.11670669 -2.6380233e-10 0)
(0.11670669 -1.36988e-10 0)
(0.11670669 -6.7728181e-11 0)
(0.11670669 -3.1353468e-11 0)
(0.11670669 -1.3178513e-11 0)
(0.11670669 -4.567414e-12 0)
(0.11670669 -7.119623e-13 0)
(0.11670669 1.100817e-12 0)
(0.11670669 2.0139294e-12 0)
(0.11670669 2.0595054e-12 0)
(0.11670669 1.1278046e-12 0)
(0.11670669 1.3921202e-13 0)
(0.11670669 -3.8871871e-13 0)
(0.11670669 -3.6715833e-13 0)
(0.11670669 -6.6812693e-14 0)
(0.11670669 4.6466757e-15 0)
(0.11670669 -2.172296e-14 0)
(0.11670669 -1.5157914e-13 0)
(0.11670669 -2.4374223e-13 0)
(0.11670669 -3.5060086e-13 0)
(0.11670669 -4.2235683e-13 0)
(0.11670669 -4.0186032e-13 0)
(0.11670669 -4.1065629e-13 0)
(0.11670669 -4.9832862e-13 0)
(0.11670669 -4.5464016e-13 0)
(0.11670669 -4.6207718e-13 0)
(0.11670669 -3.3249839e-13 0)
(0.11670669 -3.8460032e-13 0)
(0.11670669 -5.0945905e-13 0)
(0.11670669 -7.2118476e-13 0)
(0.11670669 -7.4238854e-13 0)
(0.11670669 -5.8501747e-13 0)
(0.11670669 -2.2290018e-13 0)
(0.11670669 1.5136517e-13 0)
(0.11670669 3.2944633e-13 0)
(0.11670669 3.5021934e-13 0)
(0.11670669 3.4564375e-13 0)
(0.11670669 2.5173603e-13 0)
(0.11670669 3.1296498e-13 0)
(0.11670669 3.629105e-13 0)
(0.11670669 5.7843034e-13 0)
(0.11670669 6.3754865e-13 0)
(0.11670669 6.540715e-13 0)
(0.11670669 4.163537e-13 0)
(0.11670669 2.3119891e-13 0)
(0.11670669 -9.7458327e-14 0)
(0.11670669 -1.1463655e-13 0)
(0.11670669 -2.3247157e-13 0)
(0.11670669 -9.6275833e-14 0)
(0.11670669 -1.9361285e-13 0)
(0.11670669 -1.1742396e-13 0)
(0.11670669 -2.737277e-13 0)
(0.11670669 -2.0852205e-13 0)
(0.11670669 -3.4615308e-13 0)
(0.11670669 -2.5007753e-13 0)
(0.11670669 -3.6459737e-13 0)
(0.11670669 -2.6580519e-13 0)
(0.11670669 -3.6726294e-13 0)
(0.11670669 -2.7058074e-13 0)
(0.11670669 -3.8801328e-13 0)
(0.11670669 -3.1702915e-13 0)
(0.11670669 -3.9332827e-13 0)
(0.11670669 -2.3444918e-13 0)
(0.11670669 -2.8510575e-13 0)
(0.11670669 -2.4261073e-13 0)
(0.11670669 -4.3243214e-13 0)
(0.11670669 -3.9579426e-13 0)
(0.11670669 -4.6162912e-13 0)
(0.11670669 -1.2483928e-13 0)
(0.11670669 1.8854364e-14 0)
(0.11670669 4.0617319e-13 0)
(0.11670669 4.2593342e-13 0)
(0.11670669 5.3203612e-13 0)
(0.11670669 2.4360887e-13 0)
(0.11670669 1.5393549e-13 0)
(0.11670669 -1.043709e-13 0)
(0.11670669 -2.1744337e-13 0)
(0.11670669 -3.199335e-13 0)
(0.11670669 -3.4371883e-13 0)
(0.11670669 -4.0893098e-13 0)
(0.11670669 -2.9803079e-13 0)
(0.11670669 -4.041279e-13 0)
(0.11670669 -3.6858879e-13 0)
(0.11670669 -4.4002913e-13 0)
(0.11670669 -3.8957076e-13 0)
(0.11670669 -4.043336e-13 0)
(0.11670669 -3.5126418e-13 0)
(0.11670669 -3.7531205e-13 0)
(0.11670669 -3.5975181e-13 0)
(0.11670669 -3.9565582e-13 0)
(0.11670669 -3.7833822e-13 0)
(0.11670669 -4.0088793e-13 0)
(0.11670669 -3.7522324e-13 0)
(0.11670669 -4.0010902e-13 0)
(0.11670669 -3.8335044e-13 0)
(0.11670669 -4.1523963e-13 0)
(0.11670669 -4.0714374e-13 0)
(0.11670669 -4.3579815e-13 0)
(0.11670669 -4.2969133e-13 0)
(0.11670669 -4.4993485e-13 0)
(0.11670669 -4.4845455e-13 0)
(0.11670669 -4.5875028e-13 0)
(0.11670669 -4.5889418e-13 0)
(0.11670669 -4.5727203e-13 0)
(0.11670669 -4.5532665e-13 0)
(0.11670669 -4.428413e-13 0)
(0.11670669 -4.4379638e-13 0)
(0.11670669 -4.2987273e-13 0)
(0.11670669 -4.3450723e-13 0)
(0.11670669 -4.104034e-13 0)
(0.11670669 -4.1335704e-13 0)
(0.11670669 -3.983402e-13 0)
(0.11670669 -4.315884e-13 0)
(0.11670669 -4.2512758e-13 0)
(0.11670669 -4.2431658e-13 0)
(0.11670669 -3.7841822e-13 0)
(0.11670669 -4.1839919e-13 0)
(0.11670669 -4.9191332e-13 0)
(0.11670669 -6.553735e-13 0)
(0.11670669 -6.4861997e-13 0)
(0.11670669 -5.3817993e-13 0)
(0.11670669 -2.656653e-13 0)
(0.11670669 -2.3643887e-14 0)
(0.11670669 2.6094768e-13 0)
(0.11670669 3.5154767e-13 0)
(0.11670669 5.1642767e-13 0)
(0.11670669 4.5856048e-13 0)
(0.11670669 3.8306323e-13 0)
(0.11670669 1.7207196e-13 0)
(0.11670669 -3.3775824e-14 0)
(0.11670669 -2.1858547e-13 0)
(0.11670669 -2.4559881e-13 0)
(0.11670669 -2.3943526e-13 0)
(0.11670669 -2.0221115e-13 0)
(0.11670669 -2.2829537e-13 0)
(0.11670669 -2.4508529e-13 0)
(0.11670669 -2.9806166e-13 0)
(0.11670669 -3.1371943e-13 0)
(0.11670669 -3.4550895e-13 0)
(0.11670669 -3.3683812e-13 0)
(0.11670669 -3.5410556e-13 0)
(0.11670669 -3.3314328e-13 0)
(0.11670669 -3.4961918e-13 0)
(0.11670669 -3.2236702e-13 0)
(0.11670669 -3.4209489e-13 0)
(0.11670669 -3.1079506e-13 0)
(0.11670669 -3.2438299e-13 0)
(0.11670669 -2.8502097e-13 0)
(0.11670669 -2.9137357e-13 0)
(0.11670669 -2.6473136e-13 0)
(0.11670669 -2.8002009e-13 0)
(0.11670669 -2.5923276e-13 0)
(0.11670669 -2.5865933e-13 0)
(0.11670669 -2.3763154e-13 0)
(0.11670669 -2.3233307e-13 0)
(0.11670669 -2.2507046e-13 0)
(0.11670669 -2.1540062e-13 0)
(0.11670669 -2.2187451e-13 0)
(0.11670669 -2.0192536e-13 0)
(0.11670669 -2.2429564e-13 0)
(0.11670669 -1.8433469e-13 0)
(0.11670669 -2.1266493e-13 0)
(0.11670669 -1.5115586e-13 0)
(0.11670669 -2.050339e-13 0)
(0.11670669 -1.8175652e-13 0)
(0.11670669 -2.660277e-13 0)
(0.11670669 -2.5700326e-13 0)
(0.11670669 -3.3748562e-13 0)
(0.11670669 -3.7602682e-13 0)
(0.11670669 -5.6535072e-13 0)
(0.11670669 -6.4157374e-13 0)
(0.11670669 -7.0201848e-13 0)
(0.11670669 -4.8809077e-13 0)
(0.11670669 -2.674824e-13 0)
(0.11670669 1.4409565e-13 0)
(0.11670669 2.9216201e-13 0)
(0.11670669 3.3712539e-13 0)
(0.11670669 1.1481173e-13 0)
(0.11670669 -7.8621544e-14 0)
(0.11670669 -2.6369938e-13 0)
(0.11670669 -2.7702627e-13 0)
(0.11670669 -3.2661355e-13 0)
(0.11670669 -3.5383062e-13 0)
(0.11670669 -4.4743026e-13 0)
(0.11670669 -4.1278248e-13 0)
(0.11670669 -3.1058139e-13 0)
(0.11670669 -7.8998972e-14 0)
(0.11670669 9.6393045e-14 0)
(0.11670669 2.2633697e-13 0)
(0.11670669 2.4335062e-13 0)
(0.11670669 3.2242188e-13 0)
(0.11670669 3.6429598e-13 0)
(0.11670669 3.7895934e-13 0)
(0.11670669 2.6747871e-13 0)
(0.11670669 9.3922397e-14 0)
(0.11670669 -1.6477705e-13 0)
(0.11670669 -3.6322873e-13 0)
(0.11670669 -5.1991176e-13 0)
(0.11670669 -4.6568009e-13 0)
(0.11670669 -3.2826864e-13 0)
(0.11670669 -7.8259442e-14 0)
(0.11670669 1.0669052e-13 0)
(0.11670669 1.9059086e-13 0)
(0.11670669 2.4223682e-13 0)
(0.11670669 3.13395e-13 0)
(0.11670669 4.1501466e-13 0)
(0.11670669 4.1606134e-13 0)
(0.11670669 2.9342015e-13 0)
(0.11670669 -3.9319294e-14 0)
(0.11670669 -3.4404205e-13 0)
(0.11670669 -4.8442304e-13 0)
(0.11670669 -3.7636002e-13 0)
(0.11670669 -4.720824e-14 0)
(0.11670669 2.8575208e-13 0)
(0.11670669 4.73371e-13 0)
(0.11670669 4.2035712e-13 0)
(0.11670669 1.1957354e-13 0)
(0.11670669 -2.4089775e-13 0)
(0.11670669 -4.9234763e-13 0)
(0.11670669 -5.417883e-13 0)
(0.11670669 -3.3591528e-13 0)
(0.11670669 -7.1588793e-14 0)
(0.11670669 2.0454925e-13 0)
(0.11670669 3.7823858e-13 0)
(0.11670669 4.760033e-13 0)
(0.11670669 4.3933883e-13 0)
(0.11670669 2.6310243e-13 0)
(0.11670669 2.6253792e-14 0)
(0.11670669 -2.992505e-13 0)
(0.11670669 -4.9076405e-13 0)
(0.11670669 -5.2884498e-13 0)
(0.11670669 -2.9613133e-13 0)
(0.11670669 6.3548994e-14 0)
(0.11670669 3.7796882e-13 0)
(0.11670669 4.6367591e-13 0)
(0.11670669 2.5795871e-13 0)
(0.11670669 -1.294271e-13 0)
(0.11670669 -4.3292216e-13 0)
(0.11670669 -5.7773994e-13 0)
(0.11670669 -3.525766e-13 0)
(0.11670669 5.8200172e-14 0)
(0.11670669 4.3537115e-13 0)
(0.11670669 6.0266466e-13 0)
(0.11670669 4.5100009e-13 0)
(0.11670669 1.5819942e-14 0)
(0.11670669 -3.2742299e-13 0)
(0.11670669 -5.3672917e-13 0)
(0.11670669 -3.9725876e-13 0)
(0.11670669 -2.166128e-14 0)
(0.11670669 3.6133915e-13 0)
(0.11670669 5.3513241e-13 0)
(0.11670669 4.6417904e-13 0)
(0.11670669 1.4629846e-13 0)
(0.11670669 -1.3343427e-13 0)
(0.11670669 -3.2235516e-13 0)
(0.11670669 -3.6507249e-13 0)
(0.11670669 -3.2793482e-13 0)
(0.11670669 -2.7946411e-13 0)
(0.11670669 -2.8385791e-13 0)
(0.11670669 -2.5808571e-13 0)
(0.11670669 -2.2816618e-13 0)
(0.11670669 -2.561537e-13 0)
(0.11670669 -4.8285229e-13 0)
(0.11670669 -5.9186604e-13 0)
(0.11670669 -2.6464447e-13 0)
(0.11670669 7.5431359e-14 0)
(0.50390834 0.19019021 0)
(0.4384704 0.050431503 0)
(0.29767008 0.022055312 0)
(0.25944374 0.010780094 0)
(0.22598939 0.0055621329 0)
(0.21213187 0.0032307918 0)
(0.20205719 0.0017732838 0)
(0.19716897 0.001045734 0)
(0.19394744 0.00057679281 0)
(0.19230772 0.00033133401 0)
(0.19130242 0.00017833083 0)
(0.19079327 9.7728664e-05 0)
(0.19050201 4.9924735e-05 0)
(0.1903612 2.5327688e-05 0)
(0.19028762 1.1620595e-05 0)
(0.19025609 4.9690359e-06 0)
(0.1902425 1.5963536e-06 0)
(0.19023894 1.7335709e-07 0)
(0.19023899 -3.9994575e-07 0)
(0.19024063 -5.2263123e-07 0)
(0.19024241 -4.8506375e-07 0)
(0.19024402 -3.8493214e-07 0)
(0.19024524 -2.8491076e-07 0)
(0.19024615 -1.9929457e-07 0)
(0.19024677 -1.3482567e-07 0)
(0.19024719 -8.8342814e-08 0)
(0.19024746 -5.6607817e-08 0)
(0.19024763 -3.5453645e-08 0)
(0.19024774 -2.1802496e-08 0)
(0.1902478 -1.3146927e-08 0)
(0.19024784 -7.7870804e-09 0)
(0.19024787 -4.5226215e-09 0)
(0.19024788 -2.5759746e-09 0)
(0.19024789 -1.4345852e-09 0)
(0.19024789 -7.7895556e-10 0)
(0.19024789 -4.0946875e-10 0)
(0.1902479 -2.061405e-10 0)
(0.1902479 -9.7879584e-11 0)
(0.1902479 -4.2568411e-11 0)
(0.1902479 -1.568201e-11 0)
(0.1902479 -3.338279e-12 0)
(0.1902479 2.1588952e-12 0)
(0.1902479 4.4894056e-12 0)
(0.1902479 4.5515067e-12 0)
(0.1902479 2.9152674e-12 0)
(0.1902479 1.2260071e-12 0)
(0.1902479 1.482235e-13 0)
(0.1902479 1.6386232e-14 0)
(0.1902479 3.5446091e-13 0)
(0.1902479 3.6840286e-13 0)
(0.1902479 2.5475471e-13 0)
(0.1902479 -2.6789519e-14 0)
(0.1902479 -2.2293683e-13 0)
(0.1902479 -4.4714931e-13 0)
(0.1902479 -5.7854495e-13 0)
(0.1902479 -5.7256821e-13 0)
(0.1902479 -5.8064597e-13 0)
(0.1902479 -7.2818134e-13 0)
(0.1902479 -6.5633114e-13 0)
(0.1902479 -6.7602169e-13 0)
(0.1902479 -4.7457162e-13 0)
(0.1902479 -5.6352521e-13 0)
(0.1902479 -7.4943142e-13 0)
(0.1902479 -1.0709078e-12 0)
(0.1902479 -1.1069925e-12 0)
(0.1902479 -8.6758541e-13 0)
(0.1902479 -3.095765e-13 0)
(0.1902479 2.2816244e-13 0)
(0.1902479 4.9555533e-13 0)
(0.1902479 5.0230962e-13 0)
(0.1902479 4.9034546e-13 0)
(0.1902479 3.2930531e-13 0)
(0.1902479 4.1633978e-13 0)
(0.1902479 4.8768024e-13 0)
(0.1902479 8.0841809e-13 0)
(0.1902479 8.93623e-13 0)
(0.1902479 9.176113e-13 0)
(0.1902479 5.5461992e-13 0)
(0.1902479 2.7032815e-13 0)
(0.1902479 -1.7561315e-13 0)
(0.1902479 -2.00494e-13 0)
(0.1902479 -3.5083952e-13 0)
(0.1902479 -1.4057169e-13 0)
(0.1902479 -2.6276943e-13 0)
(0.1902479 -1.4134484e-13 0)
(0.1902479 -3.6439113e-13 0)
(0.1902479 -2.699101e-13 0)
(0.1902479 -4.7003417e-13 0)
(0.1902479 -3.3344062e-13 0)
(0.1902479 -5.0040685e-13 0)
(0.1902479 -3.5827284e-13 0)
(0.1902479 -5.0732335e-13 0)
(0.1902479 -3.6807684e-13 0)
(0.1902479 -5.4333439e-13 0)
(0.1902479 -4.3876094e-13 0)
(0.1902479 -5.5142778e-13 0)
(0.1902479 -3.0960474e-13 0)
(0.1902479 -3.918447e-13 0)
(0.1902479 -3.2566078e-13 0)
(0.1902479 -6.1253942e-13 0)
(0.1902479 -5.4714576e-13 0)
(0.1902479 -6.3452736e-13 0)
(0.1902479 -1.1629449e-13 0)
(0.1902479 1.1169024e-13 0)
(0.1902479 6.8955163e-13 0)
(0.1902479 6.9120141e-13 0)
(0.1902479 8.2956571e-13 0)
(0.1902479 3.726844e-13 0)
(0.1902479 2.2720407e-13 0)
(0.1902479 -1.7685305e-13 0)
(0.1902479 -3.3346447e-13 0)
(0.1902479 -4.798334e-13 0)
(0.1902479 -4.837364e-13 0)
(0.1902479 -5.9215891e-13 0)
(0.1902479 -3.984009e-13 0)
(0.1902479 -5.7867787e-13 0)
(0.1902479 -4.9788816e-13 0)
(0.1902479 -6.2780018e-13 0)
(0.1902479 -5.3395501e-13 0)
(0.1902479 -5.7730763e-13 0)
(0.1902479 -4.8140934e-13 0)
(0.1902479 -5.3582567e-13 0)
(0.1902479 -4.9821306e-13 0)
(0.1902479 -5.6968238e-13 0)
(0.1902479 -5.3169117e-13 0)
(0.1902479 -5.8026761e-13 0)
(0.1902479 -5.3059147e-13 0)
(0.1902479 -5.8033114e-13 0)
(0.1902479 -5.4473983e-13 0)
(0.1902479 -6.0396631e-13 0)
(0.1902479 -5.8219776e-13 0)
(0.1902479 -6.3543012e-13 0)
(0.1902479 -6.1799435e-13 0)
(0.1902479 -6.5699087e-13 0)
(0.1902479 -6.4718339e-13 0)
(0.1902479 -6.6985691e-13 0)
(0.1902479 -6.6276609e-13 0)
(0.1902479 -6.6630367e-13 0)
(0.1902479 -6.559645e-13 0)
(0.1902479 -6.4197082e-13 0)
(0.1902479 -6.3628654e-13 0)
(0.1902479 -6.1904151e-13 0)
(0.1902479 -6.1973855e-13 0)
(0.1902479 -5.868204e-13 0)
(0.1902479 -5.8658703e-13 0)
(0.1902479 -5.6755674e-13 0)
(0.1902479 -6.1373685e-13 0)
(0.1902479 -6.0656255e-13 0)
(0.1902479 -6.0199836e-13 0)
(0.1902479 -5.3745027e-13 0)
(0.1902479 -5.9603593e-13 0)
(0.1902479 -7.1165275e-13 0)
(0.1902479 -9.5490968e-13 0)
(0.1902479 -9.3981078e-13 0)
(0.1902479 -7.6679598e-13 0)
(0.1902479 -3.4219076e-13 0)
(0.1902479 8.4616719e-15 0)
(0.1902479 4.0823439e-13 0)
(0.1902479 5.4138763e-13 0)
(0.1902479 7.5786467e-13 0)
(0.1902479 6.5523959e-13 0)
(0.1902479 5.1044321e-13 0)
(0.1902479 1.7585487e-13 0)
(0.1902479 -1.0519524e-13 0)
(0.1902479 -3.6449798e-13 0)
(0.1902479 -3.7494765e-13 0)
(0.1902479 -3.5544736e-13 0)
(0.1902479 -2.8077721e-13 0)
(0.1902479 -3.1067692e-13 0)
(0.1902479 -3.2945938e-13 0)
(0.1902479 -4.0933514e-13 0)
(0.1902479 -4.3232304e-13 0)
(0.1902479 -4.8287362e-13 0)
(0.1902479 -4.6974442e-13 0)
(0.1902479 -4.9706011e-13 0)
(0.1902479 -4.6446333e-13 0)
(0.1902479 -4.888617e-13 0)
(0.1902479 -4.4776073e-13 0)
(0.1902479 -4.7596928e-13 0)
(0.1902479 -4.3202691e-13 0)
(0.1902479 -4.5096318e-13 0)
(0.1902479 -3.9698641e-13 0)
(0.1902479 -4.0418424e-13 0)
(0.1902479 -3.6978551e-13 0)
(0.1902479 -3.9120293e-13 0)
(0.1902479 -3.6462973e-13 0)
(0.1902479 -3.6163243e-13 0)
(0.1902479 -3.3546193e-13 0)
(0.1902479 -3.2685116e-13 0)
(0.1902479 -3.2188226e-13 0)
(0.1902479 -3.0802838e-13 0)
(0.1902479 -3.223347e-13 0)
(0.1902479 -2.9418031e-13 0)
(0.1902479 -3.3084598e-13 0)
(0.1902479 -2.7431782e-13 0)
(0.1902479 -3.1606252e-13 0)
(0.1902479 -2.2672355e-13 0)
(0.1902479 -3.0395323e-13 0)
(0.1902479 -2.6887113e-13 0)
(0.1902479 -3.8771557e-13 0)
(0.1902479 -3.6999572e-13 0)
(0.1902479 -4.840821e-13 0)
(0.1902479 -5.4322731e-13 0)
(0.1902479 -8.191191e-13 0)
(0.1902479 -9.3004815e-13 0)
(0.1902479 -1.0050247e-12 0)
(0.1902479 -6.7629449e-13 0)
(0.1902479 -3.1925455e-13 0)
(0.1902479 2.5754761e-13 0)
(0.1902479 4.7507612e-13 0)
(0.1902479 5.157126e-13 0)
(0.1902479 1.5079075e-13 0)
(0.1902479 -1.5619314e-13 0)
(0.1902479 -4.3349084e-13 0)
(0.1902479 -4.4878908e-13 0)
(0.1902479 -5.0009993e-13 0)
(0.1902479 -5.310476e-13 0)
(0.1902479 -6.5010557e-13 0)
(0.1902479 -5.8854945e-13 0)
(0.1902479 -4.0536003e-13 0)
(0.1902479 -4.8240398e-14 0)
(0.1902479 1.9793255e-13 0)
(0.1902479 3.7841151e-13 0)
(0.1902479 3.9393359e-13 0)
(0.1902479 4.9849961e-13 0)
(0.1902479 5.494738e-13 0)
(0.1902479 5.5885402e-13 0)
(0.1902479 3.7721232e-13 0)
(0.1902479 1.0013142e-13 0)
(0.1902479 -2.5384575e-13 0)
(0.1902479 -5.4541285e-13 0)
(0.1902479 -7.4507049e-13 0)
(0.1902479 -6.5511775e-13 0)
(0.1902479 -4.2044241e-13 0)
(0.1902479 -3.8144257e-14 0)
(0.1902479 2.0761725e-13 0)
(0.1902479 3.3127498e-13 0)
(0.1902479 3.8257392e-13 0)
(0.1902479 4.7703599e-13 0)
(0.1902479 6.0459617e-13 0)
(0.1902479 5.9764972e-13 0)
(0.1902479 3.875795e-13 0)
(0.1902479 -9.8828341e-14 0)
(0.1902479 -5.3354906e-13 0)
(0.1902479 -7.2446936e-13 0)
(0.1902479 -5.3895823e-13 0)
(0.1902479 -2.5453184e-14 0)
(0.1902479 4.5681592e-13 0)
(0.1902479 7.2634596e-13 0)
(0.1902479 6.1383254e-13 0)
(0.1902479 1.3745686e-13 0)
(0.1902479 -4.0418796e-13 0)
(0.1902479 -7.8365825e-13 0)
(0.1902479 -8.2462091e-13 0)
(0.1902479 -5.0224577e-13 0)
(0.1902479 -7.8144083e-14 0)
(0.1902479 3.2562206e-13 0)
(0.1902479 5.8513493e-13 0)
(0.1902479 7.0760572e-13 0)
(0.1902479 6.3440929e-13 0)
(0.1902479 3.4891341e-13 0)
(0.1902479 -2.4177238e-14 0)
(0.1902479 -4.9129925e-13 0)
(0.1902479 -7.6145054e-13 0)
(0.1902479 -7.912187e-13 0)
(0.1902479 -4.0728491e-13 0)
(0.1902479 1.3160901e-13 0)
(0.1902479 5.9561744e-13 0)
(0.1902479 7.0196982e-13 0)
(0.1902479 3.7190499e-13 0)
(0.1902479 -2.2224306e-13 0)
(0.1902479 -6.7305392e-13 0)
(0.1902479 -8.6383706e-13 0)
(0.1902479 -5.022473e-13 0)
(0.1902479 1.3175368e-13 0)
(0.1902479 6.9595923e-13 0)
(0.1902479 9.2260105e-13 0)
(0.1902479 6.724861e-13 0)
(0.1902479 6.727543e-15 0)
(0.1902479 -5.0225877e-13 0)
(0.1902479 -8.0410331e-13 0)
(0.1902479 -5.7680611e-13 0)
(0.1902479 3.555155e-15 0)
(0.1902479 5.678645e-13 0)
(0.1902479 8.1462958e-13 0)
(0.1902479 6.8154179e-13 0)
(0.1902479 1.8734281e-13 0)
(0.1902479 -2.2834651e-13 0)
(0.1902479 -5.1286724e-13 0)
(0.1902479 -5.5936828e-13 0)
(0.1902479 -4.9353353e-13 0)
(0.1902479 -4.0791082e-13 0)
(0.1902479 -4.0066783e-13 0)
(0.1902479 -3.5609153e-13 0)
(0.1902479 -3.0482356e-13 0)
(0.1902479 -3.5351442e-13 0)
(0.1902479 -6.9291963e-13 0)
(0.1902479 -8.5211781e-13 0)
(0.1902479 -3.5323277e-13 0)
(0.1902479 1.3764644e-13 0)
(0.59346672 0.2146733 0)
(0.54593347 0.075998403 0)
(0.39702192 0.03931229 0)
(0.34953974 0.019720549 0)
(0.30792187 0.010726727 0)
(0.28963523 0.0061583694 0)
(0.27651264 0.003476178 0)
(0.26994405 0.0020290997 0)
(0.26565503 0.0011409871 0)
(0.26342423 0.00065140533 0)
(0.26206335 0.00035633341 0)
(0.26136077 0.00019487485 0)
(0.26095907 0.00010129594 0)
(0.26076048 5.1593221e-05 0)
(0.260656 2.4317593e-05 0)
(0.26060945 1.0645038e-05 0)
(0.26058866 3.7612804e-06 0)
(0.26058217 7.1203645e-07 0)
(0.26058122 -5.4239956e-07 0)
(0.26058278 -8.8408553e-07 0)
(0.2605848 -8.6447891e-07 0)
(0.26058673 -7.0550632e-07 0)
(0.26058825 -5.2972729e-07 0)
(0.26058939 -3.7488374e-07 0)
(0.26059018 -2.5553373e-07 0)
(0.26059072 -1.6863355e-07 0)
(0.26059108 -1.0863473e-07 0)
(0.2605913 -6.8404284e-08 0)
(0.26059144 -4.2255502e-08 0)
(0.26059153 -2.5603015e-08 0)
(0.26059159 -1.5235845e-08 0)
(0.26059162 -8.8948507e-09 0)
(0.26059163 -5.0930758e-09 0)
(0.26059165 -2.853241e-09 0)
(0.26059165 -1.5596305e-09 0)
(0.26059165 -8.2693621e-10 0)
(0.26059166 -4.2140859e-10 0)
(0.26059166 -2.0346452e-10 0)
(0.26059166 -9.0593075e-11 0)
(0.26059166 -3.4727492e-11 0)
(0.26059166 -8.6476552e-12 0)
(0.26059166 2.692377e-12 0)
(0.26059166 6.8839437e-12 0)
(0.26059166 7.0191256e-12 0)
(0.26059166 5.0440815e-12 0)
(0.26059166 3.124142e-12 0)
(0.26059166 1.8551341e-12 0)
(0.26059166 1.5006903e-12 0)
(0.26059166 1.5733897e-12 0)
(0.26059166 1.2978788e-12 0)
(0.26059166 9.8129349e-13 0)
(0.26059166 5.1856368e-13 0)
(0.26059166 1.9474049e-13 0)
(0.26059166 -1.2205808e-13 0)
(0.26059166 -2.7521587e-13 0)
(0.26059166 -3.0993931e-13 0)
(0.26059166 -3.2929448e-13 0)
(0.26059166 -4.6059914e-13 0)
(0.26059166 -3.4375709e-13 0)
(0.26059166 -3.7555048e-13 0)
(0.26059166 -2.106355e-13 0)
(0.26059166 -3.4638428e-13 0)
(0.26059166 -5.2482222e-13 0)
(0.26059166 -8.1012484e-13 0)
(0.26059166 -7.9422e-13 0)
(0.26059166 -5.5963927e-13 0)
(0.26059166 -7.607968e-14 0)
(0.26059166 3.3133577e-13 0)
(0.26059166 4.7709358e-13 0)
(0.26059166 4.090365e-13 0)
(0.26059166 3.6276165e-13 0)
(0.26059166 1.793064e-13 0)
(0.26059166 2.5816549e-13 0)
(0.26059166 2.9181116e-13 0)
(0.26059166 5.6285099e-13 0)
(0.26059166 5.7706635e-13 0)
(0.26059166 5.7948589e-13 0)
(0.26059166 2.5241796e-13 0)
(0.26059166 7.1595708e-14 0)
(0.26059166 -2.5376314e-13 0)
(0.26059166 -1.6917942e-13 0)
(0.26059166 -2.7092678e-13 0)
(0.26059166 -1.3045804e-14 0)
(0.26059166 -1.2133606e-13 0)
(0.26059166 4.9575914e-14 0)