/*--------------------------------*- C++ -*----------------------------------*\
| =========                 |                                                 |
| \\      /  F ield         | OpenFOAM: The Open Source CFD Toolbox           |
|  \\    /   O peration     | Version:  2206                                  |
|   \\  /    A nd           | Website:  www.openfoam.com                      |
|    \\/     M anipulation  |                                                 |
\*---------------------------------------------------------------------------*/
FoamFile
{
    version     2.0;
    format      ascii;
    arch        "LSB;label=32;scalar=64";
    class       surfaceScalarField;
    location    "5";
    object      phi;
}
// * * * * * * * * * * * * * * * * * * * * * * * * * * * * * * * * * * * * * //

dimensions      [0 3 -1 0 0 0 0];

oriented        oriented;

internalField   nonuniform List<scalar> 
29650
(
6.0867648e-05
0.00020579916
3.2718171e-05
2.8149489e-05
2.4599022e-05
8.1191537e-06
2.0417848e-05
4.1811718e-06
1.8552178e-05
1.8656689e-06
1.73737e-05
1.1784752e-06
1.6781661e-05
5.9203363e-07
1.6412315e-05
3.693356e-07
1.6220821e-05
1.9147855e-07
1.6106685e-05
1.1411832e-07
1.6048257e-05
5.8414144e-08
1.6015473e-05
3.2774277e-08
1.5999541e-05
1.5927457e-08
1.5991376e-05
8.1641186e-09
1.5987889e-05
3.487875e-09
1.598644e-05
1.4504536e-09
1.5986091e-05
3.5179485e-10
1.5986138e-05
-4.6134103e-11
1.598635e-05
-2.0983681e-10
1.5986569e-05
-2.1912038e-10
1.5986762e-05
-1.9191543e-10
1.5986908e-05
-1.4604596e-10
1.5987014e-05
-1.0628863e-10
1.5987087e-05
-7.303154e-11
1.5987136e-05
-4.8968406e-11
1.5987167e-05
-3.1720423e-11
1.5987187e-05
-2.0168228e-11
1.59872e-05
-1.2511696e-11
1.5987208e-05
-7.6402341e-12
1.5987212e-05
-4.5680853e-12
1.5987215e-05
-2.6823965e-12
1.5987216e-05
-1.5364428e-12
1.5987217e-05
-8.6006059e-13
1.5987218e-05
-4.6811377e-13
1.5987218e-05
-2.4712824e-13
1.5987218e-05
-1.2343671e-13
1.5987218e-05
-5.6744585e-14
1.5987218e-05
-2.1930489e-14
1.5987218e-05
-6.2594316e-15
1.5987218e-05
1.289888e-15
1.5987218e-05
3.97269e-15
1.5987218e-05
4.8228151e-15
1.5987218e-05
5.3197068e-15
1.5987218e-05
5.1949866e-15
1.5987218e-05
5.1586312e-15
1.5987218e-05
3.4447345e-15
1.5987218e-05
9.4701937e-16
1.5987218e-05
-1.3411844e-15
1.5987218e-05
-1.4816298e-15
1.5987218e-05
-8.1077567e-16
1.5987218e-05
6.8016791e-16
1.5987218e-05
3.7518256e-16
1.5987218e-05
5.2648817e-16
1.5987218e-05
-6.2529751e-16
1.5987218e-05
-7.6295227e-16
1.5987218e-05
-1.6395647e-15
1.5987218e-05
-1.9381185e-15
1.5987218e-05
-2.2326993e-15
1.5987218e-05
-1.5798974e-15
1.5987218e-05
-1.3378915e-15
1.5987218e-05
-8.5847186e-16
1.5987218e-05
-1.1069165e-15
1.5987218e-05
-1.294427e-15
1.5987218e-05
-2.240129e-15
1.5987218e-05
-2.765746e-15
1.5987218e-05
-3.3700235e-15
1.5987218e-05
-3.2877732e-15
1.5987218e-05
-3.2558337e-15
1.5987218e-05
-3.3109266e-15
1.5987218e-05
-3.1832537e-15
1.5987218e-05
-3.2414675e-15
1.5987218e-05
-2.5576757e-15
1.5987218e-05
-1.890941e-15
1.5987218e-05
-6.5518053e-16
1.5987218e-05
-1.0869079e-16
1.5987218e-05
5.9443575e-16
1.5987218e-05
3.49509e-16
1.5987218e-05
9.1613844e-16
1.5987218e-05
5.0517725e-16
1.5987218e-05
7.7412052e-16
1.5987218e-05
-1.6187383e-16
1.5987218e-05
-6.5468539e-16
1.5987218e-05
-1.9716639e-15
1.5987218e-05
-2.0699469e-15
1.5987218e-05
-2.6183041e-15
1.5987218e-05
-2.0470627e-15
1.5987218e-05
-2.2246339e-15
1.5987218e-05
-1.5016097e-15
1.5987218e-05
-1.764866e-15
1.5987218e-05
-1.2324821e-15
1.5987218e-05
-1.6265694e-15
1.5987218e-05
-1.1508983e-15
1.5987218e-05
-1.5082392e-15
1.5987218e-05
-1.0971309e-15
1.5987218e-05
-1.5284936e-15
1.5987218e-05
-1.1626587e-15
1.5987218e-05
-1.4716808e-15
1.5987218e-05
-1.0321493e-15
1.5987218e-05
-1.3113348e-15
1.5987218e-05
-9.1031643e-16
1.5987218e-05
-1.5363112e-15
1.5987218e-05
-1.6200776e-15
1.5987218e-05
-2.2716861e-15
1.5987218e-05
-1.7690478e-15
1.5987218e-05
-1.2123004e-15
1.5987218e-05
1.9192101e-16
1.5987218e-05
9.5692497e-16
1.5987218e-05
1.6175165e-15
1.5987218e-05
1.1420207e-15
1.5987218e-05
5.9507086e-16
1.5987218e-05
-2.3655087e-16
1.5987218e-05
-6.2080333e-16
1.5987218e-05
-8.7330075e-16
1.5987218e-05
-6.7585342e-16
1.5987218e-05
-5.238677e-16
1.5987218e-05
-3.9682696e-16
1.5987218e-05
-5.3105907e-16
1.5987218e-05
-5.9819255e-16
1.5987218e-05
-7.5153392e-16
1.5987218e-05
-7.166735e-16
1.5987218e-05
-6.874322e-16
1.5987218e-05
-6.3823915e-16
1.5987218e-05
-6.4936537e-16
1.5987218e-05
-7.4498198e-16
1.5987218e-05
-7.7958078e-16
1.5987218e-05
-8.8724184e-16
1.5987218e-05
-8.330059e-16
1.5987218e-05
-8.9631816e-16
1.5987218e-05
-8.1832025e-16
1.5987218e-05
-8.9407215e-16
1.5987218e-05
-8.2756812e-16
1.5987218e-05
-9.065058e-16
1.5987218e-05
-8.526646e-16
1.5987218e-05
-9.2703959e-16
1.5987218e-05
-8.8350305e-16
1.5987218e-05
-9.6914032e-16
1.5987218e-05
-9.3487329e-16
1.5987218e-05
-1.0240037e-15
1.5987218e-05
-9.9738819e-16
1.5987218e-05
-1.0781427e-15
1.5987218e-05
-1.0645672e-15
1.5987218e-05
-1.1453889e-15
1.5987218e-05
-1.1350422e-15
1.5987218e-05
-1.176768e-15
1.5987218e-05
-1.1506431e-15
1.5987218e-05
-1.2054715e-15
1.5987218e-05
-1.2477024e-15
1.5987218e-05
-1.2873801e-15
1.5987218e-05
-1.1904923e-15
1.5987218e-05
-1.0504774e-15
1.5987218e-05
-1.0893882e-15
1.5987218e-05
-1.3486406e-15
1.5987218e-05
-1.6076463e-15
1.5987218e-05
-1.5184791e-15
1.5987218e-05
-8.1027753e-16
1.5987218e-05
1.5436824e-16
1.5987218e-05
1.0353986e-15
1.5987218e-05
1.5107459e-15
1.5987218e-05
1.4922058e-15
1.5987218e-05
1.4138097e-15
1.5987218e-05
1.1042322e-15
1.5987218e-05
1.0281852e-15
1.5987218e-05
9.5362386e-16
1.5987218e-05
1.2448188e-15
1.5987218e-05
1.6401734e-15
1.5987218e-05
1.7895356e-15
1.5987218e-05
1.3165617e-15
1.5987218e-05
5.2962537e-16
1.5987218e-05
-5.6342198e-16
1.5987218e-05
-1.3037012e-15
1.5987218e-05
-1.5742196e-15
1.5987218e-05
-1.4948955e-15
1.5987218e-05
-1.1927226e-15
1.5987218e-05
-9.6916989e-16
1.5987218e-05
-8.0449685e-16
1.5987218e-05
-7.8343572e-16
1.5987218e-05
-7.9813702e-16
1.5987218e-05
-8.4906169e-16
1.5987218e-05
-8.6752663e-16
1.5987218e-05
-8.9668443e-16
1.5987218e-05
-8.7720317e-16
1.5987218e-05
-8.6715837e-16
1.5987218e-05
-8.081804e-16
1.5987218e-05
-8.5395063e-16
1.5987218e-05
-8.4341941e-16
1.5987218e-05
-9.133575e-16
1.5987218e-05
-7.8229301e-16
1.5987218e-05
-7.8203478e-16
1.5987218e-05
-7.9370278e-16
1.5987218e-05
-1.0946466e-15
1.5987218e-05
-1.1901899e-15
1.5987218e-05
-1.1709069e-15
1.5987218e-05
-6.6196319e-16
1.5987218e-05
-3.5904699e-16
1.5987218e-05
-6.4631386e-17
1.5987218e-05
-2.7346043e-16
1.5987218e-05
-5.3211041e-16
1.5987218e-05
-1.0549619e-15
1.5987218e-05
-1.2481226e-15
1.5987218e-05
-1.5207071e-15
1.5987218e-05
-1.3961908e-15
1.5987218e-05
-1.4722846e-15
1.5987218e-05
-1.528684e-15
1.5987218e-05
-1.9694406e-15
1.5987218e-05
-2.0527061e-15
1.5987218e-05
-1.8345512e-15
1.5987218e-05
-1.0580763e-15
1.5987218e-05
-1.678152e-16
1.5987218e-05
8.08042e-16
1.5987218e-05
1.5313161e-15
1.5987218e-05
1.9640213e-15
1.5987218e-05
1.6394427e-15
1.5987218e-05
9.2062521e-16
1.5987218e-05
-1.5387887e-16
1.5987218e-05
-1.0100294e-15
1.5987218e-05
-1.5707881e-15
1.5987218e-05
-1.8639624e-15
1.5987218e-05
-2.0267929e-15
1.5987218e-05
-1.8590125e-15
1.5987218e-05
-1.3355849e-15
1.5987218e-05
-5.1586425e-16
1.5987218e-05
3.6917947e-16
1.5987218e-05
1.0918371e-15
1.5987218e-05
1.5362668e-15
1.5987218e-05
1.8228206e-15
1.5987218e-05
1.8355956e-15
1.5987218e-05
1.3605468e-15
1.5987218e-05
7.9246074e-16
1.5987218e-05
-2.2248031e-16
1.5987218e-05
-1.1018476e-15
1.5987218e-05
-1.920211e-15
1.5987218e-05
-2.4167586e-15
1.5987218e-05
-2.107255e-15
1.5987218e-05
-1.3437627e-15
1.5987218e-05
-2.0073845e-16
1.5987218e-05
7.8917772e-16
1.5987218e-05
1.3757725e-15
1.5987218e-05
1.7874134e-15
1.5987218e-05
1.8163948e-15
1.5987218e-05
1.8133847e-15
1.5987218e-05
1.3057187e-15
1.5987218e-05
7.9901954e-16
1.5987218e-05
-3.8288489e-16
1.5987218e-05
-1.462305e-15
1.5987218e-05
-2.2200083e-15
1.5987218e-05
-1.9976508e-15
1.5987218e-05
-7.0135162e-16
1.5987218e-05
8.4902621e-16
1.5987218e-05
1.924772e-15
1.5987218e-05
1.9882644e-15
1.5987218e-05
9.0498245e-16
1.5987218e-05
-3.9959761e-16
1.5987218e-05
-1.5986396e-15
1.5987218e-05
-2.088538e-15
1.5987218e-05
-1.6791336e-15
1.5987218e-05
-8.2786154e-16
1.5987218e-05
5.2148335e-16
1.5987218e-05
1.6428118e-15
1.5987218e-05
2.338809e-15
1.5987218e-05
2.1324912e-15
1.5987218e-05
1.2647334e-15
1.5987218e-05
-4.0215864e-17
1.5987218e-05
-1.364621e-15
1.5987218e-05
-2.2478477e-15
1.5987218e-05
-2.1013365e-15
1.5987218e-05
-1.1511737e-15
1.5987218e-05
3.0438412e-16
1.5987218e-05
1.5662134e-15
1.5987218e-05
2.3429371e-15
1.5987218e-05
1.950803e-15
1.5987218e-05
8.3476401e-16
1.5987218e-05
-6.8560486e-16
1.5987218e-05
-1.9438638e-15
1.5987218e-05
-2.4045043e-15
1.5987218e-05
-1.6041708e-15
1.5987218e-05
-3.974677e-16
1.5987218e-05
1.2346043e-15
1.5987218e-05
2.0982836e-15
1.5987218e-05
1.5918815e-15
1.5987218e-05
4.1543208e-16
1.5987218e-05
-1.3287004e-15
1.5987218e-05
-2.1982775e-15
1.5987218e-05
-1.5451235e-15
1.5987218e-05
-1.8272271e-16
1.5987218e-05
1.2555876e-15
1.5987218e-05
1.84061e-15
1.5987218e-05
1.0499629e-15
1.5987218e-05
1.4462319e-16
1.5987218e-05
-1.0161107e-15
1.5987218e-05
-1.5675425e-15
1.5987218e-05
-1.7709976e-15
1.5987218e-05
-1.6662682e-15
1.5987218e-05
-1.4843463e-15
1.5987218e-05
-1.0712776e-15
1.5987218e-05
-7.408465e-16
1.5987218e-05
-7.148259e-16
1.5987218e-05
-1.6346131e-15
1.5987218e-05
-1.8843962e-15
1.5987218e-05
-5.9206695e-16
6.9719891e-16
0.00014027132
0.00033219464
9.2549245e-05
7.5871574e-05
7.0338073e-05
3.0330342e-05
5.9620313e-05
1.4898949e-05
5.4019642e-05
7.4663525e-06
5.0795343e-05
4.4027792e-06
4.901105e-05
2.3763243e-06
4.7964745e-05
1.4156326e-06
4.7384384e-05
7.7183164e-07
4.7052233e-05
4.4626457e-07
4.6872682e-05
2.3796507e-07
4.677453e-05
1.3092883e-07
4.6724186e-05
6.6275082e-08
4.6698685e-05
3.3669974e-08
4.6686924e-05
1.5251665e-08
4.6681892e-05
6.4848059e-09
4.6680252e-05
1.9940287e-09
4.6680058e-05
1.4843377e-10
4.6680445e-05
-5.9640942e-10
4.6680961e-05
-7.3583789e-10
4.6681443e-05
-6.7361494e-10
4.6681826e-05
-5.2969451e-10
4.668211e-05
-3.9060047e-10
4.6682309e-05
-2.7220298e-10
4.6682444e-05
-1.8377579e-10
4.6682532e-05
-1.2011303e-10
4.6682589e-05
-7.6826695e-11
4.6682624e-05
-4.8016386e-11
4.6682646e-05
-2.9482616e-11
4.6682659e-05
-1.774245e-11
4.6682667e-05
-1.0485037e-11
4.6682672e-05
-6.0669803e-12
4.6682674e-05
-3.4410226e-12
4.6682676e-05
-1.9056011e-12
4.6682676e-05
-1.0272103e-12
4.6682677e-05
-5.3207291e-13
4.6682677e-05
-2.6114686e-13
4.6682677e-05
-1.1819404e-13
4.6682677e-05
-4.7272319e-14
4.6682677e-05
-1.2891531e-14
4.6682677e-05
2.9935976e-15
4.6682677e-05
9.2736519e-15
4.6682677e-05
1.1350822e-14
4.6682677e-05
1.0849253e-14
4.6682677e-05
1.0583623e-14
4.6682677e-05
8.4928577e-15
4.6682677e-05
5.7819606e-15
4.6682677e-05
1.9935851e-15
4.6682677e-05
9.8147558e-16
4.6682677e-05
-2.2665988e-16
4.6682677e-05
6.3151642e-16
4.6682677e-05
-8.4630561e-16
4.6682677e-05
-7.8831354e-16
4.6682677e-05
-2.4644087e-15
4.6682677e-05
-2.3978235e-15
4.6682677e-05
-3.5781293e-15
4.6682677e-05
-3.7476035e-15
4.6682677e-05
-4.6395754e-15
4.6682677e-05
-3.2784138e-15
4.6682677e-05
-3.7006371e-15
4.6682677e-05
-2.2756159e-15
4.6682677e-05
-3.0994454e-15
4.6682677e-05
-2.6967323e-15
4.6682677e-05
-4.1294664e-15
4.6682677e-05
-4.001608e-15
4.6682677e-05
-4.8728516e-15
4.6682677e-05
-4.678105e-15
4.6682677e-05
-4.9578574e-15
4.6682677e-05
-5.1119099e-15
4.6682677e-05
-5.5634974e-15
4.6682677e-05
-5.6810581e-15
4.6682677e-05
-5.8781903e-15
4.6682677e-05
-4.8300803e-15
4.6682677e-05
-3.801414e-15
4.6682677e-05
-1.9772526e-15
4.6682677e-05
-5.5313755e-16
4.6682677e-05
3.9946423e-16
4.6682677e-05
1.25996e-15
4.6682677e-05
1.6177813e-15
4.6682677e-05
2.1464188e-15
4.6682677e-05
1.5627273e-15
4.6682677e-05
8.130541e-16
4.6682677e-05
-9.7125959e-16
4.6682677e-05
-1.8238862e-15
4.6682677e-05
-3.2372346e-15
4.6682677e-05
-3.2742929e-15
4.6682677e-05
-3.7442086e-15
4.6682677e-05
-3.1969333e-15
4.6682677e-05
-3.501705e-15
4.6682677e-05
-3.0257167e-15
4.6682677e-05
-3.4412156e-15
4.6682677e-05
-2.9537523e-15
4.6682677e-05
-3.2561938e-15
4.6682677e-05
-2.756284e-15
4.6682677e-05
-3.1971803e-15
4.6682677e-05
-2.8665455e-15
4.6682677e-05
-3.2861937e-15
4.6682677e-05
-2.8372087e-15
4.6682677e-05
-3.0358572e-15
4.6682677e-05
-2.5436428e-15
4.6682677e-05
-3.0323506e-15
4.6682677e-05
-3.1985811e-15
4.6682677e-05
-4.1862158e-15
4.6682677e-05
-3.7641701e-15
4.6682677e-05
-3.1878411e-15
4.6682677e-05
-1.4130839e-15
4.6682677e-05
-1.2066045e-16
4.6682677e-05
1.2394348e-15
4.6682677e-05
1.8503163e-15
4.6682677e-05
1.9193075e-15
4.6682677e-05
1.1514263e-15
4.6682677e-05
3.5375928e-16
4.6682677e-05
-6.2475846e-16
4.6682677e-05
-1.0118493e-15
4.6682677e-05
-1.1991927e-15
4.6682677e-05
-1.5191619e-15
4.6682677e-05
-1.7518726e-15
4.6682677e-05
-2.0154248e-15
4.6682677e-05
-2.1602049e-15
4.6682677e-05
-2.1556798e-15
4.6682677e-05
-2.0931716e-15
4.6682677e-05
-2.1357436e-15
4.6682677e-05
-2.194647e-15
4.6682677e-05
-2.4091398e-15
4.6682677e-05
-2.4257436e-15
4.6682677e-05
-2.5937489e-15
4.6682677e-05
-2.4592169e-15
4.6682677e-05
-2.5708982e-15
4.6682677e-05
-2.4289455e-15
4.6682677e-05
-2.5634187e-15
4.6682677e-05
-2.4360035e-15
4.6682677e-05
-2.560675e-15
4.6682677e-05
-2.4465868e-15
4.6682677e-05
-2.5547177e-15
4.6682677e-05
-2.4611462e-15
4.6682677e-05
-2.5952731e-15
4.6682677e-05
-2.5107556e-15
4.6682677e-05
-2.6577487e-15
4.6682677e-05
-2.5930951e-15
4.6682677e-05
-2.73005e-15
4.6682677e-05
-2.6894033e-15
4.6682677e-05
-2.8330812e-15
4.6682677e-05
-2.8174436e-15
4.6682677e-05
-2.9157927e-15
4.6682677e-05
-2.8576402e-15
4.6682677e-05
-2.9350515e-15
4.6682677e-05
-2.9463795e-15
4.6682677e-05
-3.0598699e-15
4.6682677e-05
-2.9179723e-15
4.6682677e-05
-2.7833503e-15
4.6682677e-05
-2.6224318e-15
4.6682677e-05
-2.9237054e-15
4.6682677e-05
-3.4104899e-15
4.6682677e-05
-3.6387044e-15
4.6682677e-05
-3.0245569e-15
4.6682677e-05
-1.7465808e-15
4.6682677e-05
-3.0808758e-16
4.6682677e-05
8.9482445e-16
4.6682677e-05
1.8264636e-15
4.6682677e-05
2.2526563e-15
4.6682677e-05
2.3502687e-15
4.6682677e-05
2.4687975e-15
4.6682677e-05
2.4588408e-15
4.6682677e-05
2.7760544e-15
4.6682677e-05
3.5236518e-15
4.6682677e-05
3.8623471e-15
4.6682677e-05
3.7596418e-15
4.6682677e-05
2.8011892e-15
4.6682677e-05
1.3201036e-15
4.6682677e-05
-2.638352e-16
4.6682677e-05
-1.5212236e-15
4.6682677e-05
-2.1907199e-15
4.6682677e-05
-2.2986824e-15
4.6682677e-05
-2.3694978e-15
4.6682677e-05
-2.2506668e-15
4.6682677e-05
-2.4000374e-15
4.6682677e-05
-2.4019162e-15
4.6682677e-05
-2.5498226e-15
4.6682677e-05
-2.4972503e-15
4.6682677e-05
-2.5751251e-15
4.6682677e-05
-2.4908666e-15
4.6682677e-05
-2.5225509e-15
4.6682677e-05
-2.3927464e-15
4.6682677e-05
-2.4651391e-15
4.6682677e-05
-2.4195176e-15
4.6682677e-05
-2.5752733e-15
4.6682677e-05
-2.4095188e-15
4.6682677e-05
-2.4204949e-15
4.6682677e-05
-2.2805309e-15
4.6682677e-05
-2.6293977e-15
4.6682677e-05
-2.8656145e-15
4.6682677e-05
-3.0693699e-15
4.6682677e-05
-2.6138301e-15
4.6682677e-05
-2.1324058e-15
4.6682677e-05
-1.4390379e-15
4.6682677e-05
-1.4449438e-15
4.6682677e-05
-1.5735443e-15
4.6682677e-05
-2.1802832e-15
4.6682677e-05
-2.5312074e-15
4.6682677e-05
-3.0099284e-15
4.6682677e-05
-3.0011354e-15
4.6682677e-05
-3.0676044e-15
4.6682677e-05
-3.0424815e-15
4.6682677e-05
-3.6102138e-15
4.6682677e-05
-4.0552824e-15
4.6682677e-05
-4.1720204e-15
4.6682677e-05
-3.4178271e-15
4.6682677e-05
-2.1491411e-15
4.6682677e-05
-6.6717305e-16
4.6682677e-05
1.0174887e-15
4.6682677e-05
2.526728e-15
4.6682677e-05
3.2358683e-15
4.6682677e-05
2.9688346e-15
4.6682677e-05
1.7893718e-15
4.6682677e-05
4.6971628e-16
4.6682677e-05
-8.1677676e-16
4.6682677e-05
-1.9621251e-15
4.6682677e-05
-2.8486122e-15
4.6682677e-05
-3.4629038e-15
4.6682677e-05
-3.4177148e-15
4.6682677e-05
-2.7209626e-15
4.6682677e-05
-1.4511542e-15
4.6682677e-05
-2.168441e-16
4.6682677e-05
9.9783754e-16
4.6682677e-05
2.1881878e-15
4.6682677e-05
2.9488827e-15
4.6682677e-05
3.231486e-15
4.6682677e-05
2.8537163e-15
4.6682677e-05
1.6873243e-15
4.6682677e-05
4.8935461e-16
4.6682677e-05
-1.2690262e-15
4.6682677e-05
-2.7465248e-15
4.6682677e-05
-3.7132827e-15
4.6682677e-05
-3.4518651e-15
4.6682677e-05
-2.29149e-15
4.6682677e-05
-9.8607862e-16
4.6682677e-05
3.9132111e-16
4.6682677e-05
1.6246896e-15
4.6682677e-05
2.4574752e-15
4.6682677e-05
3.1266125e-15
4.6682677e-05
3.2276133e-15
4.6682677e-05
2.9690301e-15
4.6682677e-05
1.5075586e-15
4.6682677e-05
1.0553702e-16
4.6682677e-05
-2.1527854e-15
4.6682677e-05
-3.1723586e-15
4.6682677e-05
-2.7352541e-15
4.6682677e-05
-9.7335755e-16
4.6682677e-05
1.1590951e-15
4.6682677e-05
2.5110869e-15
4.6682677e-05
2.360386e-15
4.6682677e-05
1.0171429e-15
4.6682677e-05
-1.0179766e-15
4.6682677e-05
-2.6208856e-15
4.6682677e-05
-3.2330543e-15
4.6682677e-05
-2.7121808e-15
4.6682677e-05
-1.1484731e-15
4.6682677e-05
6.3179433e-16
4.6682677e-05
2.4459548e-15
4.6682677e-05
3.3830633e-15
4.6682677e-05
3.2172509e-15
4.6682677e-05
1.8672893e-15
4.6682677e-05
1.6379388e-16
4.6682677e-05
-1.9007349e-15
4.6682677e-05
-3.0935844e-15
4.6682677e-05
-2.9547977e-15
4.6682677e-05
-1.4595499e-15
4.6682677e-05
2.8792933e-16
4.6682677e-05
2.3632879e-15
4.6682677e-05
3.2288238e-15
4.6682677e-05
2.7755326e-15
4.6682677e-05
1.0585484e-15
4.6682677e-05
-1.0955919e-15
4.6682677e-05
-2.8990527e-15
4.6682677e-05
-3.3123239e-15
4.6682677e-05
-2.2319254e-15
4.6682677e-05
-1.922364e-16
4.6682677e-05
1.8915411e-15
4.6682677e-05
2.9503177e-15
4.6682677e-05
2.1749961e-15
4.6682677e-05
-3.3633827e-17
4.6682677e-05
-2.0703137e-15
4.6682677e-05
-2.9616666e-15
4.6682677e-05
-1.7718924e-15
4.6682677e-05
2.8957548e-16
4.6682677e-05
2.0785587e-15
4.6682677e-05
2.4599401e-15
4.6682677e-05
1.6597735e-15
4.6682677e-05
-1.0355912e-17
4.6682677e-05
-1.3514814e-15
4.6682677e-05
-2.3755303e-15
4.6682677e-05
-2.668924e-15
4.6682677e-05
-2.8410606e-15
4.6682677e-05
-2.6509934e-15
4.6682677e-05
-2.3152791e-15
4.6682677e-05
-2.0811494e-15
4.6682677e-05
-3.1085577e-15
4.6682677e-05
-4.0899799e-15
4.6682677e-05
-3.208746e-15
-7.2602684e-16
0.00019469214
0.0004041693
0.00014360962
0.0001269541
0.00011230147
6.1638471e-05
9.6619294e-05
3.0581112e-05
8.776222e-05
1.6323415e-05
8.2755405e-05
9.4095902e-06
7.9871701e-05
5.2600329e-06
7.8206034e-05
3.0813064e-06
7.7256668e-05
1.7212001e-06
7.6718195e-05
9.8473722e-07
7.6420462e-05
5.3569268e-07
7.6258218e-05
2.9316673e-07
7.6172993e-05
1.5149434e-07
7.6129599e-05
7.7058025e-08
7.6108851e-05
3.5997212e-08
7.6099695e-05
1.5638463e-08
7.6096324e-05
5.3640894e-09
7.6095587e-05
8.8521199e-10
7.6095937e-05
-9.4530135e-10
7.6096611e-05
-1.4099701e-09
7.609729e-05
-1.3525146e-09
7.6097854e-05
-1.0928061e-09
7.609828e-05
-8.1650488e-10
7.6098584e-05
-5.7558802e-10
7.6098791e-05
-3.914008e-10
7.6098929e-05
-2.5769406e-10
7.6099018e-05
-1.6570928e-10
7.6099074e-05
-1.0415062e-10
7.6099108e-05
-6.4239609e-11
7.609913e-05
-3.8861651e-11
7.6099142e-05
-2.3090186e-11
7.609915e-05
-1.3450378e-11
7.6099154e-05
-7.680291e-12
7.6099156e-05
-4.2870691e-12
7.6099157e-05
-2.3332238e-12
7.6099158e-05
-1.2278614e-12
7.6099158e-05
-6.1892757e-13
7.6099159e-05
-2.9186171e-13
7.6099159e-05
-1.2469123e-13
7.6099159e-05
-4.2335868e-14
7.6099159e-05
-4.799238e-15
7.6099159e-05
1.06798e-14
7.6099159e-05
1.6104495e-14
7.6099159e-05
1.6523077e-14
7.6099159e-05
1.5514323e-14
7.6099159e-05
1.1479443e-14
7.6099159e-05
6.715943e-15
7.6099159e-05
1.9503862e-15
7.6099159e-05
8.9729279e-16
7.6099159e-05
5.9049883e-16
7.6099159e-05
2.4940394e-15
7.6099159e-05
1.7246522e-15
7.6099159e-05
1.9258319e-15
7.6099159e-05
-1.9010217e-16
7.6099159e-05
-3.756264e-16
7.6099159e-05
-2.1788193e-15
7.6099159e-05
-2.5468686e-15
7.6099159e-05
-3.558956e-15
7.6099159e-05
-2.4660086e-15
7.6099159e-05
-2.6085219e-15
7.6099159e-05
-1.5802639e-15
7.6099159e-05
-2.286192e-15
7.6099159e-05
-2.192104e-15
7.6099159e-05
-3.8041358e-15
7.6099159e-05
-4.1926405e-15
7.6099159e-05
-5.3494325e-15
7.6099159e-05
-5.1630514e-15
7.6099159e-05
-5.3765804e-15
7.6099159e-05
-5.4338086e-15
7.6099159e-05
-5.4553768e-15
7.6099159e-05
-5.7256685e-15
7.6099159e-05
-5.0050918e-15
7.6099159e-05
-4.0812858e-15
7.6099159e-05
-2.2539053e-15
7.6099159e-05
-1.4017427e-15
7.6099159e-05
-1.6040688e-16
7.6099159e-05
-3.369242e-16
7.6099159e-05
7.7158183e-16
7.6099159e-05
3.0809771e-16
7.6099159e-05
9.5972943e-16
7.6099159e-05
-6.8647988e-16
7.6099159e-05
-1.0254685e-15
7.6099159e-05
-3.1442114e-15
7.6099159e-05
-3.0598233e-15
7.6099159e-05
-4.1771742e-15
7.6099159e-05
-3.2511864e-15
7.6099159e-05
-3.7822315e-15
7.6099159e-05
-2.5807386e-15
7.6099159e-05
-3.1134403e-15
7.6099159e-05
-2.1094274e-15
7.6099159e-05
-2.7970554e-15
7.6099159e-05
-1.8827118e-15
7.6099159e-05
-2.5112418e-15
7.6099159e-05
-1.7191465e-15
7.6099159e-05
-2.509501e-15
7.6099159e-05
-1.8609464e-15
7.6099159e-05
-2.5014616e-15
7.6099159e-05
-1.7734721e-15
7.6099159e-05
-2.3174567e-15
7.6099159e-05
-1.6056979e-15
7.6099159e-05
-2.6080489e-15
7.6099159e-05
-2.5344006e-15
7.6099159e-05
-3.552192e-15
7.6099159e-05
-2.6767925e-15
7.6099159e-05
-1.8940058e-15
7.6099159e-05
3.3306099e-16
7.6099159e-05
1.4505099e-15
7.6099159e-05
2.6338793e-15
7.6099159e-05
2.0161652e-15
7.6099159e-05
1.4914346e-15
7.6099159e-05
2.3915194e-16
7.6099159e-05
-2.787813e-16
7.6099159e-05
-7.6015215e-16
7.6099159e-05
-6.1981922e-16
7.6099159e-05
-6.2506663e-16
7.6099159e-05
-5.595907e-16
7.6099159e-05
-7.5857691e-16
7.6099159e-05
-9.0087704e-16
7.6099159e-05
-1.086191e-15
7.6099159e-05
-1.0774955e-15
7.6099159e-05
-1.0037908e-15
7.6099159e-05
-9.9241249e-16
7.6099159e-05
-9.8429883e-16
7.6099159e-05
-1.2061845e-15
7.6099159e-05
-1.237934e-15
7.6099159e-05
-1.4846793e-15
7.6099159e-05
-1.3735988e-15
7.6099159e-05
-1.5510304e-15
7.6099159e-05
-1.3859894e-15
7.6099159e-05
-1.5704035e-15
7.6099159e-05
-1.4108497e-15
7.6099159e-05
-1.5908763e-15
7.6099159e-05
-1.4432764e-15
7.6099159e-05
-1.6113647e-15
7.6099159e-05
-1.4797813e-15
7.6099159e-05
-1.6581134e-15
7.6099159e-05
-1.5519092e-15
7.6099159e-05
-1.7362634e-15
7.6099159e-05
-1.6513893e-15
7.6099159e-05
-1.8329186e-15
7.6099159e-05
-1.7778328e-15
7.6099159e-05
-1.9648043e-15
7.6099159e-05
-1.9225494e-15
7.6099159e-05
-2.0502463e-15
7.6099159e-05
-1.9725002e-15
7.6099159e-05
-2.0958669e-15
7.6099159e-05
-2.0973844e-15
7.6099159e-05
-2.1913786e-15
7.6099159e-05
-1.9779722e-15
7.6099159e-05
-1.796803e-15
7.6099159e-05
-1.7779837e-15
7.6099159e-05
-2.1684323e-15
7.6099159e-05
-2.5206457e-15
7.6099159e-05
-2.5121588e-15
7.6099159e-05
-1.4223106e-15
7.6099159e-05
-1.8878534e-16
7.6099159e-05
1.1254475e-15
7.6099159e-05
1.7864224e-15
7.6099159e-05
1.8981644e-15
7.6099159e-05
1.9379561e-15
7.6099159e-05
1.6670052e-15
7.6099159e-05
1.671521e-15
7.6099159e-05
1.6395261e-15
7.6099159e-05
2.0603149e-15
7.6099159e-05
2.7540335e-15
7.6099159e-05
2.9780126e-15
7.6099159e-05
2.4101569e-15
7.6099159e-05
1.2304262e-15
7.6099159e-05
-3.0747088e-16
7.6099159e-05
-1.4690565e-15
7.6099159e-05
-1.94506e-15
7.6099159e-05
-2.0745156e-15
7.6099159e-05
-1.7605862e-15
7.6099159e-05
-1.6051092e-15
7.6099159e-05
-1.3376971e-15
7.6099159e-05
-1.3829518e-15
7.6099159e-05
-1.3258497e-15
7.6099159e-05
-1.469817e-15
7.6099159e-05
-1.4253814e-15
7.6099159e-05
-1.5254514e-15
7.6099159e-05
-1.4398828e-15
7.6099159e-05
-1.478615e-15
7.6099159e-05
-1.3367857e-15
7.6099159e-05
-1.4545221e-15
7.6099159e-05
-1.39039e-15
7.6099159e-05
-1.5590009e-15
7.6099159e-05
-1.3259778e-15
7.6099159e-05
-1.3897281e-15
7.6099159e-05
-1.3468601e-15
7.6099159e-05
-1.8375635e-15
7.6099159e-05
-1.9643446e-15
7.6099159e-05
-2.0710884e-15
7.6099159e-05
-1.2820414e-15
7.6099159e-05
-8.7199354e-16
7.6099159e-05
-3.4073627e-16
7.6099159e-05
-6.6141529e-16
7.6099159e-05
-9.081406e-16
7.6099159e-05
-1.6405636e-15
7.6099159e-05
-1.8798795e-15
7.6099159e-05
-2.3646389e-15
7.6099159e-05
-2.2152445e-15
7.6099159e-05
-2.3678652e-15
7.6099159e-05
-2.4188581e-15
7.6099159e-05
-3.0783597e-15
7.6099159e-05
-3.2661091e-15
7.6099159e-05
-3.0599501e-15
7.6099159e-05
-1.9239192e-15
7.6099159e-05
-6.7698583e-16
7.6099159e-05
7.9822991e-16
7.6099159e-05
1.9598691e-15
7.6099159e-05
2.8173662e-15
7.6099159e-05
2.6903095e-15
7.6099159e-05
1.7666199e-15
7.6099159e-05
2.8337627e-16
7.6099159e-05
-9.9652133e-16
7.6099159e-05
-1.8894393e-15
7.6099159e-05
-2.4923391e-15
7.6099159e-05
-2.9347834e-15
7.6099159e-05
-2.9579836e-15
7.6099159e-05
-2.359294e-15
7.6099159e-05
-1.157928e-15
7.6099159e-05
9.7401547e-17
7.6099159e-05
1.229873e-15
7.6099159e-05
1.9659504e-15
7.6099159e-05
2.5743222e-15
7.6099159e-05
2.8105788e-15
7.6099159e-05
2.3636477e-15
7.6099159e-05
1.5129707e-15
7.6099159e-05
7.8527355e-17
7.6099159e-05
-1.2067481e-15
7.6099159e-05
-2.5176628e-15
7.6099159e-05
-3.4058477e-15
7.6099159e-05
-3.2980566e-15
7.6099159e-05
-2.4278224e-15
7.6099159e-05
-8.120752e-16
7.6099159e-05
6.3873181e-16
7.6099159e-05
1.540164e-15
7.6099159e-05
2.3041692e-15
7.6099159e-05
2.5331215e-15
7.6099159e-05
2.8061213e-15
7.6099159e-05
2.2147713e-15
7.6099159e-05
1.5244831e-15
7.6099159e-05
-2.0182375e-16
7.6099159e-05
-1.7850578e-15
7.6099159e-05
-3.0831347e-15
7.6099159e-05
-3.0693989e-15
7.6099159e-05
-1.4274653e-15
7.6099159e-05
7.4112845e-16
7.6099159e-05
2.3974239e-15
7.6099159e-05
2.7743321e-15
7.6099159e-05
1.5301727e-15
7.6099159e-05
-2.0562131e-16
7.6099159e-05
-1.9765043e-15
7.6099159e-05
-2.8820541e-15
7.6099159e-05
-2.6146835e-15
7.6099159e-05
-1.5292955e-15
7.6099159e-05
3.294539e-16
7.6099159e-05
2.0092841e-15
7.6099159e-05
3.1999646e-15
7.6099159e-05
3.2295643e-15
7.6099159e-05
2.2960183e-15
7.6099159e-05
4.8555277e-16
7.6099159e-05
-1.4710737e-15
7.6099159e-05
-2.924754e-15
7.6099159e-05
-3.0454853e-15
7.6099159e-05
-2.0417537e-15
7.6099159e-05
-1.5447972e-17
7.6099159e-05
1.8481016e-15
7.6099159e-05
3.1860768e-15
7.6099159e-05
2.9782898e-15
7.6099159e-05
1.6656632e-15
7.6099159e-05
-4.7094342e-16
7.6099159e-05
-2.3373429e-15
7.6099159e-05
-3.3055653e-15
7.6099159e-05
-2.5256697e-15
7.6099159e-05
-9.9960214e-16
7.6099159e-05
1.3914569e-15
7.6099159e-05
2.7458681e-15
7.6099159e-05
2.3732929e-15
7.6099159e-05
8.533997e-16
7.6099159e-05
-1.6651424e-15
7.6099159e-05
-2.9968701e-15
7.6099159e-05
-2.3913139e-15
7.6099159e-05
-6.0804547e-16
7.6099159e-05
1.4558273e-15
7.6099159e-05
2.491435e-15
7.6099159e-05
1.6324084e-15
7.6099159e-05
5.1261381e-16
7.6099159e-05
-1.1783452e-15
7.6099159e-05
-1.9690911e-15
7.6099159e-05
-2.4584131e-15
7.6099159e-05
-2.4376509e-15
7.6099159e-05
-2.3753542e-15
7.6099159e-05
-1.8432121e-15
7.6099159e-05
-1.3751949e-15
7.6099159e-05
-1.3053788e-15
7.6099159e-05
-2.6932198e-15
7.6099159e-05
-3.1376805e-15
7.6099159e-05
-1.2061196e-15
7.7407098e-16
0.00023312986
0.00043770624
0.00018548527
0.00017459869
0.00015018421
9.6939521e-05
0.0001310242
4.9741116e-05
0.00011965162
2.7695988e-05
0.0001131446
1.5916612e-05
0.00010931814
9.0864975e-06
0.00010710183
5.2976213e-06
0.0001058215
3.0015401e-06
0.00010509347
1.7127651e-06
0.00010468612
9.4303543e-07
0.00010446306
5.1622116e-07
0.00010434425
2.7030432e-07
0.00010428311
1.3818993e-07
0.00010425319
6.5913872e-08
0.00010423959
2.9236059e-08
0.0001042342
1.075468e-08
0.00010423268
2.406804e-09
0.00010423281
-1.0794205e-09
0.00010423352
-2.1156078e-09
0.00010423431
-2.1440203e-09
0.000104235
-1.7795553e-09
0.00010423553
-1.3483514e-09
0.00010423592
-9.6068961e-10
0.00010423618
-6.5789819e-10
0.00010423636
-4.3592238e-10
0.00010423648
-2.8170304e-10
0.00010423655
-1.779023e-10
0.0001042366
-1.1018185e-10
0.00010423662
-6.6938963e-11
0.00010423664
-3.9937958e-11
0.00010423665
-2.3373947e-11
0.00010423666
-1.3414435e-11
0.00010423666
-7.5318587e-12
0.00010423666
-4.12763e-12
0.00010423666
-2.1934587e-12
0.00010423666
-1.1205867e-12
0.00010423666
-5.4054226e-13
0.00010423666
-2.3950897e-13
0.00010423666
-8.9552776e-14
0.00010423666
-1.9615169e-14
0.00010423666
9.9696422e-15
0.00010423666
2.1035292e-14
0.00010423666
2.2844462e-14
0.00010423666
2.1472791e-14
0.00010423666
1.565584e-14
0.00010423666
9.2304163e-15
0.00010423666
2.8885757e-15
0.00010423666
1.7851975e-15
0.00010423666
1.222445e-15
0.00010423666
4.2906746e-15
0.00010423666
3.6549724e-15
0.00010423666
4.4214831e-15
0.00010423666
1.789083e-15
0.00010423666
1.6312306e-15
0.00010423666
-6.6387817e-16
0.00010423666
-1.1387611e-15
0.00010423666
-3.0745266e-15
0.00010423666
-1.4468662e-15
0.00010423666
-2.5901334e-15
0.00010423666
-9.7999273e-16
0.00010423666
-2.296648e-15
0.00010423666
-1.7715407e-15
0.00010423666
-3.9384454e-15
0.00010423666
-4.0847927e-15
0.00010423666
-5.4118285e-15
0.00010423666
-5.0273119e-15
0.00010423666
-5.2391131e-15
0.00010423666
-5.2269869e-15
0.00010423666
-5.624856e-15
0.00010423666
-5.4722144e-15
0.00010423666
-5.0344996e-15
0.00010423666
-3.4024681e-15
0.00010423666
-1.8493119e-15
0.00010423666
-8.2442487e-16
0.00010423666
-3.4310197e-16
0.00010423666
-3.8752245e-16
0.00010423666
3.0462997e-16
0.00010423666
2.2470459e-17
0.00010423666
1.9601126e-17
0.00010423666
-1.8155998e-15
0.00010423666
-2.5434994e-15
0.00010423666
-4.4130894e-15
0.00010423666
-4.084355e-15
0.00010423666
-4.7789078e-15
0.00010423666
-3.6315647e-15
0.00010423666
-3.8313854e-15
0.00010423666
-2.541311e-15
0.00010423666
-2.8275025e-15
0.00010423666
-1.7980876e-15
0.00010423666
-2.3253512e-15
0.00010423666
-1.4352269e-15
0.00010423666
-1.9606671e-15
0.00010423666
-1.2498212e-15
0.00010423666
-2.0177027e-15
0.00010423666
-1.4435813e-15
0.00010423666
-2.034027e-15
0.00010423666
-1.359246e-15
0.00010423666
-1.8597163e-15
0.00010423666
-1.3940171e-15
0.00010423666
-2.4340204e-15
0.00010423666
-2.4707144e-15
0.00010423666
-3.3613071e-15
0.00010423666
-2.1596811e-15
0.00010423666
-1.0318672e-15
0.00010423666
1.4489195e-15
0.00010423666
2.7322128e-15
0.00010423666
3.4791014e-15
0.00010423666
2.5406887e-15
0.00010423666
1.4295716e-15
0.00010423666
-1.3606135e-16
0.00010423666
-6.035408e-16
0.00010423666
-9.2623118e-16
0.00010423666
-5.8770988e-16
0.00010423666
-3.3491857e-16
0.00010423666
-2.1759942e-16
0.00010423666
-1.8781674e-16
0.00010423666
-3.4432599e-16
0.00010423666
-4.5843598e-16
0.00010423666