/*--------------------------------*- C++ -*----------------------------------*\
| =========                 |                                                 |
| \\      /  F ield         | OpenFOAM: The Open Source CFD Toolbox           |
|  \\    /   O peration     | Version:  2206                                  |
|   \\  /    A nd           | Website:  www.openfoam.com                      |
|    \\/     M anipulation  |                                                 |
\*---------------------------------------------------------------------------*/
FoamFile
{
    version     2.0;
    format      ascii;
    arch        "LSB;label=32;scalar=64";
    class       volVectorField;
    location    "5";
    object      U;
}
// * * * * * * * * * * * * * * * * * * * * * * * * * * * * * * * * * * * * * //

dimensions      [0 1 -1 0 0 0 0];

internalField   nonuniform List<vector> 
15000
(
(0.15962853 0.053997679 0)
(0.11557193 0.0064916423 0)
(0.064251364 0.0014144207 0)
(0.055918599 0.0007495996 0)
(0.047595816 0.0002882676 0)
(0.044708798 0.00019884276 0)
(0.042412494 9.0521852e-05 0)
(0.041406639 6.0127344e-05 0)
(0.040707477 2.8978306e-05 0)
(0.04037699 1.8018316e-05 0)
(0.040167796 8.6607962e-06 0)
(0.040068658 4.9945996e-06 0)
(0.040011052 2.2669576e-06 0)
(0.039985307 1.1735707e-06 0)
(0.039971972 4.4683961e-07 0)
(0.039967049 1.7424421e-07 0)
(0.03996518 1.4506989e-08 0)
(0.039965128 -2.9843391e-08 0)
(0.039965544 -4.8411589e-08 0)
(0.039966152 -4.3080468e-08 0)
(0.03996668 -3.5662255e-08 0)
(0.039967111 -2.6008233e-08 0)
(0.039967422 -1.8548528e-08 0)
(0.039967642 -1.2480808e-08 0)
(0.03996779 -8.2687995e-09 0)
(0.039967887 -5.281711e-09 0)
(0.039967949 -3.3256948e-09 0)
(0.039967988 -2.0396918e-09 0)
(0.039968012 -1.2344692e-09 0)
(0.039968026 -7.3019562e-10 0)
(0.039968035 -4.2430843e-10 0)
(0.03996804 -2.3958102e-10 0)
(0.039968042 -1.3196279e-10 0)
(0.039968044 -7.0300181e-11 0)
(0.039968045 -3.6127184e-11 0)
(0.039968045 -1.7177498e-11 0)
(0.039968045 -7.1771244e-12 0)
(0.039968046 -2.0790058e-12 0)
(0.039968046 -1.3501481e-14 0)
(0.039968046 9.1828878e-13 0)
(0.039968046 1.1522765e-12 0)
(0.039968046 1.178535e-12 0)
(0.039968046 1.2426568e-12 0)
(0.039968046 1.1675385e-12 0)
(0.039968046 1.1924773e-12 0)
(0.039968046 8.0938645e-13 0)
(0.039968046 2.5226643e-13 0)
(0.039968046 -2.9264532e-13 0)
(0.039968046 -3.0628501e-13 0)
(0.039968046 -1.8758915e-13 0)
(0.039968046 1.6451706e-13 0)
(0.039968046 3.0776262e-14 0)
(0.039968046 1.0418513e-13 0)
(0.039968046 -1.9323115e-13 0)
(0.039968046 -2.0218004e-13 0)
(0.039968046 -4.3621985e-13 0)
(0.039968046 -4.9473129e-13 0)
(0.039968046 -5.7581886e-13 0)
(0.039968046 -3.9043054e-13 0)
(0.039968046 -3.596851e-13 0)
(0.039968046 -2.1635641e-13 0)
(0.039968046 -3.0385416e-13 0)
(0.039968046 -3.2109583e-13 0)
(0.039968046 -5.5952094e-13 0)
(0.039968046 -6.6798869e-13 0)
(0.039968046 -8.2606112e-13 0)
(0.039968046 -8.0373397e-13 0)
(0.039968046 -8.0536656e-13 0)
(0.039968046 -8.1725432e-13 0)
(0.039968046 -7.910135e-13 0)
(0.039968046 -7.9934176e-13 0)
(0.039968046 -6.5694469e-13 0)
(0.039968046 -5.0037321e-13 0)
(0.039968046 -2.2444007e-13 0)
(0.039968046 -7.9662296e-14 0)
(0.039968046 1.0096637e-13 0)
(0.039968046 5.8874917e-14 0)
(0.039968046 2.0175293e-13 0)
(0.039968046 1.1245182e-13 0)
(0.039968046 1.909549e-13 0)
(0.039968046 -4.1555119e-15 0)
(0.039968046 -1.1825004e-13 0)
(0.039968046 -4.4340247e-13 0)
(0.039968046 -4.6857366e-13 0)
(0.039968046 -6.2174447e-13 0)
(0.039968046 -4.8821689e-13 0)
(0.039968046 -5.4178137e-13 0)
(0.039968046 -3.678042e-13 0)
(0.039968046 -4.3797797e-13 0)
(0.039968046 -3.0749932e-13 0)
(0.039968046 -4.0674679e-13 0)
(0.039968046 -2.8843517e-13 0)
(0.039968046 -3.7722758e-13 0)
(0.039968046 -2.7242101e-13 0)
(0.039968046 -3.7850642e-13 0)
(0.039968046 -2.8753341e-13 0)
(0.039968046 -3.6878593e-13 0)
(0.039968046 -2.6182304e-13 0)
(0.039968046 -3.3249655e-13 0)
(0.039968046 -2.2970241e-13 0)
(0.039968046 -3.7628733e-13 0)
(0.039968046 -3.8818127e-13 0)
(0.039968046 -5.5004758e-13 0)
(0.039968046 -4.288045e-13 0)
(0.039968046 -3.1436037e-13 0)
(0.039968046 1.8418842e-14 0)
(0.039968046 1.9898208e-13 0)
(0.039968046 3.7363263e-13 0)
(0.039968046 2.8051568e-13 0)
(0.039968046 1.7041495e-13 0)
(0.039968046 -1.9434647e-14 0)
(0.039968046 -1.1031042e-13 0)
(0.039968046 -1.8387608e-13 0)
(0.039968046 -1.4807575e-13 0)
(0.039968046 -1.2269462e-13 0)
(0.039968046 -1.0324276e-13 0)
(0.039968046 -1.3907179e-13 0)
(0.039968046 -1.564464e-13 0)
(0.039968046 -1.9120083e-13 0)
(0.039968046 -1.8304675e-13 0)
(0.039968046 -1.765545e-13 0)
(0.039968046 -1.6847967e-13 0)
(0.039968046 -1.7156637e-13 0)
(0.039968046 -1.9722705e-13 0)
(0.039968046 -2.0275953e-13 0)
(0.039968046 -2.3044214e-13 0)
(0.039968046 -2.1524116e-13 0)
(0.039968046 -2.334776e-13 0)
(0.039968046 -2.1306156e-13 0)
(0.039968046 -2.3421938e-13 0)
(0.039968046 -2.1611589e-13 0)
(0.039968046 -2.370549e-13 0)
(0.039968046 -2.21648e-13 0)
(0.039968046 -2.4092575e-13 0)
(0.039968046 -2.2827547e-13 0)
(0.039968046 -2.4995097e-13 0)
(0.039968046 -2.3966821e-13 0)
(0.039968046 -2.6232385e-13 0)
(0.039968046 -2.5427877e-13 0)
(0.039968046 -2.7467843e-13 0)
(0.039968046 -2.7012647e-13 0)
(0.039968046 -2.9031843e-13 0)
(0.039968046 -2.8750525e-13 0)
(0.039968046 -2.9846834e-13 0)
(0.039968046 -2.9166193e-13 0)
(0.039968046 -3.0415439e-13 0)
(0.039968046 -3.1317255e-13 0)
(0.039968046 -3.2320489e-13 0)
(0.039968046 -3.0149811e-13 0)
(0.039968046 -2.6881449e-13 0)
(0.039968046 -2.731132e-13 0)
(0.039968046 -3.300252e-13 0)
(0.039968046 -3.9492273e-13 0)
(0.039968046 -3.824088e-13 0)
(0.039968046 -2.3633189e-13 0)
(0.039968046 -6.2823733e-15 0)
(0.039968046 2.0559299e-13 0)
(0.039968046 3.310159e-13 0)
(0.039968046 3.4179758e-13 0)
(0.039968046 3.3481233e-13 0)
(0.039968046 2.6904143e-13 0)
(0.039968046 2.6195896e-13 0)
(0.039968046 2.4710825e-13 0)
(0.039968046 3.1391026e-13 0)
(0.039968046 4.0518283e-13 0)
(0.039968046 4.4488971e-13 0)
(0.039968046 3.5045671e-13 0)
(0.039968046 1.7345308e-13 0)
(0.039968046 -8.8467403e-14 0)
(0.039968046 -2.7256531e-13 0)
(0.039968046 -3.5492414e-13 0)
(0.039968046 -3.4801337e-13 0)
(0.039968046 -2.8548645e-13 0)
(0.039968046 -2.3855248e-13 0)
(0.039968046 -2.0457975e-13 0)
(0.039968046 -2.0265845e-13 0)
(0.039968046 -2.0638125e-13 0)
(0.039968046 -2.1881396e-13 0)
(0.039968046 -2.2135353e-13 0)
(0.039968046 -2.2790762e-13 0)
(0.039968046 -2.2207908e-13 0)
(0.039968046 -2.1998754e-13 0)
(0.039968046 -2.0481998e-13 0)
(0.039968046 -2.1539459e-13 0)
(0.039968046 -2.1167053e-13 0)
(0.039968046 -2.2967888e-13 0)
(0.039968046 -1.9844638e-13 0)
(0.039968046 -1.9935981e-13 0)
(0.039968046 -1.9610408e-13 0)
(0.039968046 -2.652089e-13 0)
(0.039968046 -2.876102e-13 0)
(0.039968046 -2.9071201e-13 0)
(0.039968046 -1.7907313e-13 0)
(0.039968046 -1.1474734e-13 0)
(0.039968046 -3.4968271e-14 0)
(0.039968046 -7.4640604e-14 0)
(0.039968046 -1.2499962e-13 0)
(0.039968046 -2.4934463e-13 0)
(0.039968046 -2.9518969e-13 0)
(0.039968046 -3.6747149e-13 0)
(0.039968046 -3.4286423e-13 0)
(0.039968046 -3.6693062e-13 0)
(0.039968046 -3.7719899e-13 0)
(0.039968046 -4.8432508e-13 0)
(0.039968046 -5.0748506e-13 0)
(0.039968046 -4.7064021e-13 0)
(0.039968046 -3.003691e-13 0)
(0.039968046 -8.9297884e-14 0)
(0.039968046 1.4617984e-13 0)
(0.039968046 3.2921554e-13 0)
(0.039968046 4.5160511e-13 0)
(0.039968046 3.9277037e-13 0)
(0.039968046 2.5016813e-13 0)
(0.039968046 3.4325135e-15 0)
(0.039968046 -2.0115637e-13 0)
(0.039968046 -3.4458869e-13 0)
(0.039968046 -4.2706261e-13 0)
(0.039968046 -4.7768423e-13 0)
(0.039968046 -4.4993379e-13 0)
(0.039968046 -3.4465118e-13 0)
(0.039968046 -1.689966e-13 0)
(0.039968046 4.2756475e-14 0)
(0.039968046 2.1979525e-13 0)
(0.039968046 3.3572015e-13 0)
(0.039968046 4.1795722e-13 0)
(0.039968046 4.3262746e-13 0)
(0.039968046 3.3652063e-13 0)
(0.039968046 2.2728026e-13 0)
(0.039968046 -1.1953663e-14 0)
(0.039968046 -2.1987523e-13 0)
(0.039968046 -4.2635324e-13 0)
(0.039968046 -5.5961778e-13 0)
(0.039968046 -5.0768178e-13 0)
(0.039968046 -3.480636e-13 0)
(0.039968046 -9.195665e-14 0)
(0.039968046 1.419751e-13 0)
(0.039968046 2.9115624e-13 0)
(0.039968046 4.0282314e-13 0)
(0.039968046 4.2207112e-13 0)
(0.039968046 4.3352486e-13 0)
(0.039968046 3.289934e-13 0)
(0.039968046 2.3334668e-13 0)
(0.039968046 -4.6269868e-14 0)
(0.039968046 -2.9955413e-13 0)
(0.039968046 -5.0320809e-13 0)
(0.039968046 -4.7427464e-13 0)
(0.039968046 -2.0172918e-13 0)
(0.039968046 1.5942892e-13 0)
(0.039968046 4.2812944e-13 0)
(0.039968046 4.6897126e-13 0)
(0.039968046 2.3807907e-13 0)
(0.039968046 -5.7785253e-14 0)
(0.039968046 -3.4814262e-13 0)
(0.039968046 -4.8284707e-13 0)
(0.039968046 -4.0518137e-13 0)
(0.039968046 -2.3071313e-13 0)
(0.039968046 8.4117291e-14 0)
(0.039968046 3.5275938e-13 0)
(0.039968046 5.3606179e-13 0)
(0.039968046 5.0767244e-13 0)
(0.039968046 3.2593072e-13 0)
(0.039968046 3.1989514e-14 0)
(0.039968046 -2.773315e-13 0)
(0.039968046 -5.0449499e-13 0)
(0.039968046 -4.9436183e-13 0)
(0.039968046 -2.9447212e-13 0)
(0.039968046 3.3714157e-14 0)
(0.039968046 3.3045311e-13 0)
(0.039968046 5.3642097e-13 0)
(0.039968046 4.6642538e-13 0)
(0.039968046 2.3231143e-13 0)
(0.039968046 -1.2052838e-13 0)
(0.039968046 -4.2705723e-13 0)
(0.039968046 -5.6266349e-13 0)
(0.039968046 -3.9877593e-13 0)
(0.039968046 -1.3656336e-13 0)
(0.039968046 2.4494868e-13 0)
(0.039968046 4.6701501e-13 0)
(0.039968046 3.7779728e-13 0)
(0.039968046 1.3064681e-13 0)
(0.039968046 -2.8079615e-13 0)
(0.039968046 -5.0309267e-13 0)
(0.039968046 -3.7774316e-13 0)
(0.039968046 -7.5785749e-14 0)
(0.039968046 2.6390639e-13 0)
(0.039968046 4.2328985e-13 0)
(0.039968046 2.5891388e-13 0)
(0.039968046 6.3833918e-14 0)
(0.039968046 -2.1285845e-13 0)
(0.039968046 -3.5187792e-13 0)
(0.039968046 -4.1412744e-13 0)
(0.039968046 -3.9525603e-13 0)
(0.039968046 -3.5980758e-13 0)
(0.039968046 -2.6961917e-13 0)
(0.039968046 -2.0025265e-13 0)
(0.039968046 -1.8393652e-13 0)
(0.039968046 -3.9564884e-13 0)
(0.039968046 -4.6549217e-13 0)
(0.039968046 -1.9251007e-13 0)
(0.039968046 1.3576061e-13 0)
(0.36732384 0.1406283 0)
(0.29754389 0.025079388 0)
(0.1860793 0.008369467 0)
(0.16132807 0.0041218776 0)
(0.13901859 0.0019375811 0)
(0.13040448 0.0011770232 0)
(0.12396461 0.00061112641 0)
(0.12095999 0.00037191491 0)
(0.1189454 0.00019726064 0)
(0.11794826 0.00011563639 0)
(0.11733081 6.0256898e-05 0)
(0.11702581 3.3414238e-05 0)
(0.11685065 1.6511809e-05 0)
(0.11676842 8.3936527e-06 0)
(0.1167257 3.664545e-06 0)
(0.11670834 1.522082e-06 0)
(0.1167012 4.0047333e-07 0)
(0.11669986 -2.7322076e-08 0)
(0.1167004 -1.9854445e-07 0)
(0.11670175 -2.1561506e-07 0)
(0.11670304 -1.902097e-07 0)
(0.11670415 -1.4602274e-07 0)
(0.11670497 -1.0645747e-07 0)
(0.11670557 -7.3405799e-08 0)
(0.11670597 -4.925277e-08 0)
(0.11670624 -3.1974461e-08 0)
(0.11670642 -2.0352824e-08 0)
(0.11670653 -1.2652268e-08 0)
(0.11670659 -7.7355164e-09 0)
(0.11670664 -4.6326382e-09 0)
(0.11670666 -2.7246794e-09 0)
(0.11670667 -1.5665279e-09 0)
(0.11670668 -8.8198395e-10 0)
(0.11670669 -4.8392059e-10 0)
(0.11670669 -2.5797173e-10 0)
(0.11670669 -1.3119106e-10 0)
(0.11670669 -6.2433497e-11 0)
(0.11670669 -2.6502037e-11 0)
(0.11670669 -9.3600386e-12 0)
(0.11670669 -1.195323e-12 0)
(0.11670669 2.3181641e-12 0)
(0.11670669 3.5979122e-12 0)
(0.11670669 4.0737318e-12 0)
(0.11670669 3.8479816e-12 0)
(0.11670669 3.8111996e-12 0)
(0.11670669 2.8757624e-12 0)
(0.11670669 1.5872334e-12 0)
(0.11670669 8.0658633e-14 0)
(0.11670669 -1.6954857e-13 0)
(0.11670669 -2.9727788e-13 0)
(0.11670669 3.2455307e-13 0)
(0.11670669 -1.6114427e-13 0)
(0.11670669 -7.2814111e-14 0)
(0.11670669 -8.1416989e-13 0)
(0.11670669 -8.1250486e-13 0)
(0.11670669 -1.3502682e-12 0)
(0.11670669 -1.4640147e-12 0)
(0.11670669 -1.73091e-12 0)
(0.11670669 -1.2363291e-12 0)
(0.11670669 -1.2687985e-12 0)
(0.11670669 -7.9349421e-13 0)
(0.11670669 -1.0681219e-12 0)
(0.11670669 -1.0129481e-12 0)
(0.11670669 -1.6217443e-12 0)
(0.11670669 -1.7290819e-12 0)
(0.11670669 -2.1149074e-12 0)
(0.11670669 -2.0443291e-12 0)
(0.11670669 -2.1082812e-12 0)
(0.11670669 -2.1597325e-12 0)
(0.11670669 -2.2237438e-12 0)
(0.11670669 -2.2688036e-12 0)
(0.11670669 -2.1177861e-12 0)
(0.11670669 -1.6704446e-12 0)
(0.11670669 -1.1229731e-12 0)
(0.11670669 -5.4559022e-13 0)
(0.11670669 3.5700587e-15 0)
(0.11670669 1.7593635e-13 0)
(0.11670669 5.4698256e-13 0)
(0.11670669 5.2314658e-13 0)
(0.11670669 7.3559178e-13 0)
(0.11670669 3.6011391e-13 0)
(0.11670669 3.059886e-14 0)
(0.11670669 -7.6288202e-13 0)
(0.11670669 -9.8228122e-13 0)
(0.11670669 -1.4942252e-12 0)
(0.11670669 -1.3447236e-12 0)
(0.11670669 -1.5149978e-12 0)
(0.11670669 -1.1829664e-12 0)
(0.11670669 -1.3321955e-12 0)
(0.11670669 -1.0721721e-12 0)
(0.11670669 -1.2819988e-12 0)
(0.11670669 -1.0343688e-12 0)
(0.11670669 -1.2054201e-12 0)
(0.11670669 -9.7099784e-13 0)
(0.11670669 -1.1951832e-12 0)
(0.11670669 -1.0153399e-12 0)
(0.11670669 -1.2026757e-12 0)
(0.11670669 -9.745293e-13 0)
(0.11670669 -1.0986726e-12 0)
(0.11670669 -8.6584169e-13 0)
(0.11670669 -1.1513501e-12 0)
(0.11670669 -1.2084666e-12 0)
(0.11670669 -1.6292862e-12 0)
(0.11670669 -1.3929197e-12 0)
(0.11670669 -1.1104481e-12 0)
(0.11670669 -2.9515061e-13 0)
(0.11670669 2.1178707e-13 0)
(0.11670669 7.2886182e-13 0)
(0.11670669 7.589275e-13 0)
(0.11670669 6.4163249e-13 0)
(0.11670669 2.4040062e-13 0)
(0.11670669 -5.1242968e-14 0)
(0.11670669 -3.6742429e-13 0)
(0.11670669 -4.1558968e-13 0)
(0.11670669 -4.2768005e-13 0)
(0.11670669 -4.7809316e-13 0)
(0.11670669 -5.7534704e-13 0)
(0.11670669 -6.5933576e-13 0)
(0.11670669 -7.3577968e-13 0)
(0.11670669 -7.2593278e-13 0)
(0.11670669 -7.0308878e-13 0)
(0.11670669 -7.0113481e-13 0)
(0.11670669 -7.1820722e-13 0)
(0.11670669 -7.9666934e-13 0)
(0.11670669 -8.087e-13 0)
(0.11670669 -8.7873226e-13 0)
(0.11670669 -8.3034001e-13 0)
(0.11670669 -8.7565777e-13 0)
(0.11670669 -8.1915838e-13 0)
(0.11670669 -8.7363204e-13 0)
(0.11670669 -8.2386095e-13 0)
(0.11670669 -8.768452e-13 0)
(0.11670669 -8.3351107e-13 0)
(0.11670669 -8.8086416e-13 0)
(0.11670669 -8.4567472e-13 0)
(0.11670669 -9.0147493e-13 0)
(0.11670669 -8.7130195e-13 0)
(0.11670669 -9.3060503e-13 0)
(0.11670669 -9.0760183e-13 0)
(0.11670669 -9.6225315e-13 0)
(0.11670669 -9.4840782e-13 0)
(0.11670669 -1.0046968e-12 0)
(0.11670669 -9.9807391e-13 0)
(0.11670669 -1.0327887e-12 0)
(0.11670669 -1.0114129e-12 0)
(0.11670669 -1.0437608e-12 0)
(0.11670669 -1.0580339e-12 0)
(0.11670669 -1.0962477e-12 0)
(0.11670669 -1.0371233e-12 0)
(0.11670669 -9.6681385e-13 0)
(0.11670669 -9.3721853e-13 0)
(0.11670669 -1.0780262e-12 0)
(0.11670669 -1.2679639e-12 0)
(0.11670669 -1.3041952e-12 0)
(0.11670669 -9.7120168e-13 0)
(0.11670669 -3.7629999e-13 0)
(0.11670669 1.7924467e-13 0)
(0.11670669 6.0641878e-13 0)
(0.11670669 8.3968051e-13 0)
(0.11670669 9.2931765e-13 0)
(0.11670669 8.7256109e-13 0)
(0.11670669 8.8827787e-13 0)
(0.11670669 8.6675725e-13 0)
(0.11670669 1.0198678e-12 0)
(0.11670669 1.3050263e-12 0)
(0.11670669 1.4298775e-12 0)
(0.11670669 1.2855563e-12 0)
(0.11670669 8.3305186e-13 0)
(0.11670669 1.8579587e-13 0)
(0.11670669 -3.9125464e-13 0)
(0.11670669 -7.8231493e-13 0)
(0.11670669 -9.3091939e-13 0)
(0.11670669 -8.7870043e-13 0)
(0.11670669 -8.4000286e-13 0)
(0.11670669 -7.7034918e-13 0)
(0.11670669 -8.0257626e-13 0)
(0.11670669 -8.0699284e-13 0)
(0.11670669 -8.5720862e-13 0)
(0.11670669 -8.4866226e-13 0)
(0.11670669 -8.7526102e-13 0)
(0.11670669 -8.4930626e-13 0)
(0.11670669 -8.5409255e-13 0)
(0.11670669 -8.06098e-13 0)
(0.11670669 -8.35345e-13 0)
(0.11670669 -8.2117079e-13 0)
(0.11670669 -8.7786326e-13 0)
(0.11670669 -8.0237771e-13 0)
(0.11670669 -8.0460426e-13 0)
(0.11670669 -7.7046882e-13 0)
(0.11670669 -9.3317201e-13 0)
(0.11670669 -1.0155741e-12 0)
(0.11670669 -1.0658427e-12 0)
(0.11670669 -8.2192395e-13 0)
(0.11670669 -6.265759e-13 0)
(0.11670669 -3.7530531e-13 0)
(0.11670669 -4.2759896e-13 0)
(0.11670669 -5.2176758e-13 0)
(0.11670669 -8.1076785e-13 0)
(0.11670669 -9.4759691e-13 0)
(0.11670669 -1.1428356e-12 0)
(0.11670669 -1.1109216e-12 0)
(0.11670669 -1.1509626e-12 0)
(0.11670669 -1.1588754e-12 0)
(0.11670669 -1.4175722e-12 0)
(0.11670669 -1.5488719e-12 0)
(0.11670669 -1.5253332e-12 0)
(0.11670669 -1.1346916e-12 0)
(0.11670669 -5.7627964e-13 0)
(0.11670669 2.5743728e-14 0)
(0.11670669 6.3450612e-13 0)
(0.11670669 1.1327862e-12 0)
(0.11670669 1.2237141e-12 0)
(0.11670669 9.8170627e-13 0)
(0.11670669 3.9241005e-13 0)
(0.11670669 -1.3914849e-13 0)
(0.11670669 -6.0336612e-13 0)
(0.11670669 -9.7028108e-13 0)
(0.11670669 -1.2367994e-12 0)
(0.11670669 -1.3436862e-12 0)
(0.11670669 -1.2027274e-12 0)
(0.11670669 -8.1355336e-13 0)
(0.11670669 -2.5869384e-13 0)
(0.11670669 2.1783752e-13 0)
(0.11670669 6.3625327e-13 0)
(0.11670669 1.0131392e-12 0)
(0.11670669 1.2065762e-12 0)
(0.11670669 1.1547762e-12 0)
(0.11670669 9.243324e-13 0)
(0.11670669 3.5019153e-13 0)
(0.11670669 -1.5950372e-13 0)
(0.11670669 -8.0668894e-13 0)
(0.11670669 -1.3125041e-12 0)
(0.11670669 -1.47067e-12 0)
(0.11670669 -1.213892e-12 0)
(0.11670669 -6.1067517e-13 0)
(0.11670669 -4.7761701e-14 0)
(0.11670669 4.4182878e-13 0)
(0.11670669 8.6370238e-13 0)
(0.11670669 1.0812256e-12 0)
(0.11670669 1.2479599e-12 0)
(0.11670669 1.1440182e-12 0)
(0.11670669 9.540342e-13 0)
(0.11670669 2.5572576e-13 0)
(0.11670669 -3.3955526e-13 0)
(0.11670669 -1.1051142e-12 0)
(0.11670669 -1.3066507e-12 0)
(0.11670669 -8.6337004e-13 0)
(0.11670669 -1.7516994e-14 0)
(0.11670669 7.8292258e-13 0)
(0.11670669 1.1471189e-12 0)
(0.11670669 8.2781612e-13 0)
(0.11670669 1.5965436e-13 0)
(0.11670669 -6.5562943e-13 0)
(0.11670669 -1.191136e-12 0)
(0.11670669 -1.2368479e-12 0)
(0.11670669 -8.9646575e-13 0)
(0.11670669 -1.4526818e-13 0)
(0.11670669 5.7169273e-13 0)
(0.11670669 1.2131213e-12 0)
(0.11670669 1.3949997e-12 0)
(0.11670669 1.1319478e-12 0)
(0.11670669 4.3704994e-13 0)
(0.11670669 -2.9942454e-13 0)
(0.11670669 -1.0484195e-12 0)
(0.11670669 -1.3135316e-12 0)
(0.11670669 -1.0354022e-12 0)
(0.11670669 -2.6692497e-13 0)
(0.11670669 4.6681859e-13 0)
(0.11670669 1.1942677e-12 0)
(0.11670669 1.3093683e-12 0)
(0.11670669 9.0965473e-13 0)
(0.11670669 8.8756968e-14 0)
(0.11670669 -7.6879064e-13 0)
(0.11670669 -1.3514555e-12 0)
(0.11670669 -1.2453681e-12 0)
(0.11670669 -6.531074e-13 0)
(0.11670669 2.5257979e-13 0)
(0.11670669 1.0032398e-12 0)
(0.11670669 1.1389197e-12 0)
(0.11670669 6.5117487e-13 0)
(0.11670669 -3.4923688e-13 0)
(0.11670669 -1.0851041e-12 0)
(0.11670669 -1.1381694e-12 0)
(0.11670669 -4.8270296e-13 0)
(0.11670669 3.8601542e-13 0)
(0.11670669 9.9395443e-13 0)
(0.11670669 8.8235117e-13 0)
(0.11670669 4.4923539e-13 0)
(0.11670669 -2.5980247e-13 0)
(0.11670669 -7.3782117e-13 0)
(0.11670669 -1.0510047e-12 0)
(0.11670669 -1.0960806e-12 0)
(0.11670669 -1.0918436e-12 0)
(0.11670669 -9.3902943e-13 0)
(0.11670669 -7.7326062e-13 0)
(0.11670669 -7.04539e-13 0)
(0.11670669 -1.1980041e-12 0)
(0.11670669 -1.5090461e-12 0)
(0.11670669 -9.4830124e-13 0)
(0.11670669 4.5064025e-15 0)
(0.50390834 0.19019022 0)
(0.4384704 0.050431508 0)
(0.29767008 0.022055318 0)
(0.25944374 0.010780101 0)
(0.22598939 0.0055621396 0)
(0.21213187 0.0032307987 0)
(0.20205719 0.0017732884 0)
(0.19716897 0.0010457342 0)
(0.19394744 0.00057678849 0)
(0.19230772 0.00033132739 0)
(0.19130242 0.00017832424 0)
(0.19079327 9.7723547e-05 0)
(0.19050201 4.9921848e-05 0)
(0.1903612 2.5326516e-05 0)
(0.19028762 1.1620655e-05 0)
(0.19025609 4.9696676e-06 0)
(0.1902425 1.5971604e-06 0)
(0.19023894 1.7412311e-07 0)
(0.19023899 -3.9936081e-07 0)
(0.19024063 -5.2221302e-07 0)
(0.19024241 -4.848103e-07 0)
(0.19024402 -3.8481169e-07 0)
(0.19024524 -2.8490098e-07 0)
(0.19024615 -1.9934781e-07 0)
(0.19024677 -1.3489992e-07 0)
(0.19024719 -8.8405841e-08 0)
(0.19024746 -5.6650345e-08 0)
(0.19024763 -3.5480109e-08 0)
(0.19024774 -2.1819538e-08 0)
(0.1902478 -1.3157251e-08 0)
(0.19024784 -7.7923395e-09 0)
(0.19024787 -4.5218882e-09 0)
(0.19024788 -2.5719344e-09 0)
(0.19024789 -1.4290355e-09 0)
(0.19024789 -7.7348717e-10 0)
(0.19024789 -4.0364164e-10 0)
(0.1902479 -2.0080388e-10 0)
(0.1902479 -9.2746764e-11 0)
(0.1902479 -3.8286118e-11 0)
(0.1902479 -1.1728163e-11 0)
(0.1902479 3.3794274e-13 0)
(0.1902479 5.1673196e-12 0)
(0.1902479 6.8099187e-12 0)
(0.1902479 6.6995669e-12 0)
(0.1902479 6.3914736e-12 0)
(0.1902479 4.8817578e-12 0)
(0.1902479 3.0641336e-12 0)
(0.1902479 9.5620519e-13 0)
(0.1902479 4.7145555e-13 0)
(0.1902479 7.548504e-14 0)
(0.1902479 7.7994939e-13 0)
(0.1902479 1.939976e-13 0)
(0.1902479 2.8600252e-13 0)
(0.1902479 -6.8309156e-13 0)
(0.1902479 -6.9907254e-13 0)
(0.1902479 -1.4658068e-12 0)
(0.1902479 -1.6003331e-12 0)
(0.1902479 -2.057061e-12 0)
(0.1902479 -1.4453491e-12 0)
(0.1902479 -1.5844579e-12 0)
(0.1902479 -9.6473951e-13 0)
(0.1902479 -1.3578193e-12 0)
(0.1902479 -1.2205833e-12 0)
(0.1902479 -1.9922104e-12 0)
(0.1902479 -2.0470592e-12 0)
(0.1902479 -2.5677228e-12 0)
(0.1902479 -2.4722127e-12 0)
(0.1902479 -2.6084579e-12 0)
(0.1902479 -2.6625359e-12 0)
(0.1902479 -2.7747348e-12 0)
(0.1902479 -2.8667337e-12 0)
(0.1902479 -2.7223293e-12 0)
(0.1902479 -2.2147578e-12 0)
(0.1902479 -1.5392902e-12 0)
(0.1902479 -8.8861834e-13 0)
(0.1902479 -2.1371297e-13 0)
(0.1902479 -1.2100175e-14 0)
(0.1902479 4.8804844e-13 0)
(0.1902479 4.667128e-13 0)
(0.1902479 7.7364933e-13 0)
(0.1902479 2.2851067e-13 0)
(0.1902479 -5.1264949e-14 0)
(0.1902479 -1.0167031e-12 0)
(0.1902479 -1.1942681e-12 0)
(0.1902479 -1.8437938e-12 0)
(0.1902479 -1.6203286e-12 0)
(0.1902479 -1.8798509e-12 0)
(0.1902479 -1.4410676e-12 0)
(0.1902479 -1.6550039e-12 0)
(0.1902479 -1.2835974e-12 0)
(0.1902479 -1.561268e-12 0)
(0.1902479 -1.2101838e-12 0)
(0.1902479 -1.4429091e-12 0)
(0.1902479 -1.1183004e-12 0)
(0.1902479 -1.4261962e-12 0)
(0.1902479 -1.181128e-12 0)
(0.1902479 -1.4480529e-12 0)
(0.1902479 -1.1545551e-12 0)
(0.1902479 -1.3408575e-12 0)
(0.1902479 -1.0363351e-12 0)
(0.1902479 -1.4063842e-12 0)
(0.1902479 -1.42187e-12 0)
(0.1902479 -1.9288028e-12 0)
(0.1902479 -1.6079627e-12 0)
(0.1902479 -1.2774192e-12 0)
(0.1902479 -2.7009674e-13 0)
(0.1902479 3.1783088e-13 0)
(0.1902479 9.599259e-13 0)
(0.1902479 9.6928653e-13 0)
(0.1902479 8.7196792e-13 0)
(0.1902479 3.7687883e-13 0)
(0.1902479 5.5568635e-14 0)
(0.1902479 -3.1926783e-13 0)
(0.1902479 -3.886278e-13 0)
(0.1902479 -4.4536241e-13 0)
(0.1902479 -5.1491921e-13 0)
(0.1902479 -6.2501046e-13 0)
(0.1902479 -7.2877159e-13 0)
(0.1902479 -8.1131325e-13 0)
(0.1902479 -8.0978202e-13 0)
(0.1902479 -7.7612058e-13 0)
(0.1902479 -7.8516707e-13 0)
(0.1902479 -7.9759204e-13 0)
(0.1902479 -9.0804635e-13 0)
(0.1902479 -9.1933294e-13 0)
(0.1902479 -1.0236228e-12 0)
(0.1902479 -9.6127515e-13 0)
(0.1902479 -1.0344624e-12 0)
(0.1902479 -9.5657798e-13 0)
(0.1902479 -1.0372842e-12 0)
(0.1902479 -9.6474625e-13 0)
(0.1902479 -1.0418802e-12 0)
(0.1902479 -9.7564573e-13 0)
(0.1902479 -1.0458031e-12 0)
(0.1902479 -9.8871535e-13 0)
(0.1902479 -1.0670196e-12 0)
(0.1902479 -1.019299e-12 0)
(0.1902479 -1.1016974e-12 0)
(0.1902479 -1.064323e-12 0)
(0.1902479 -1.1435645e-12 0)
(0.1902479 -1.1197605e-12 0)
(0.1902479 -1.2019251e-12 0)
(0.1902479 -1.1878801e-12 0)
(0.1902479 -1.2441472e-12 0)
(0.1902479 -1.2106863e-12 0)
(0.1902479 -1.2599114e-12 0)
(0.1902479 -1.2632412e-12 0)
(0.1902479 -1.3149791e-12 0)
(0.1902479 -1.2276905e-12 0)
(0.1902479 -1.1484298e-12 0)
(0.1902479 -1.1013333e-12 0)
(0.1902479 -1.2709178e-12 0)
(0.1902479 -1.4829795e-12 0)
(0.1902479 -1.5424061e-12 0)
(0.1902479 -1.1204153e-12 0)
(0.1902479 -4.7132577e-13 0)
(0.1902479 1.7611966e-13 0)
(0.1902479 6.4478509e-13 0)
(0.1902479 9.1576979e-13 0)
(0.1902479 1.0403055e-12 0)
(0.1902479 1.0022491e-12 0)
(0.1902479 1.0398787e-12 0)
(0.1902479 1.0289167e-12 0)
(0.1902479 1.2117904e-12 0)
(0.1902479 1.5691282e-12 0)
(0.1902479 1.7133163e-12 0)
(0.1902479 1.5552885e-12 0)
(0.1902479 1.0105961e-12 0)
(0.1902479 2.715269e-13 0)
(0.1902479 -4.0079311e-13 0)
(0.1902479 -8.453958e-13 0)
(0.1902479 -1.0522479e-12 0)
(0.1902479 -1.0077055e-12 0)
(0.1902479 -9.9185249e-13 0)
(0.1902479 -8.9927347e-13 0)
(0.1902479 -9.4853356e-13 0)
(0.1902479 -9.3446176e-13 0)
(0.1902479 -1.0077156e-12 0)
(0.1902479 -9.8278777e-13 0)
(0.1902479 -1.02703e-12 0)
(0.1902479 -9.8454508e-13 0)
(0.1902479 -1.0018592e-12 0)
(0.1902479 -9.3384368e-13 0)
(0.1902479 -9.8079879e-13 0)
(0.1902479 -9.5358603e-13 0)
(0.1902479 -1.0344223e-12 0)
(0.1902479 -9.3517689e-13 0)
(0.1902479 -9.5318794e-13 0)
(0.1902479 -9.037668e-13 0)
(0.1902479 -1.1097813e-12 0)
(0.1902479 -1.1999773e-12 0)
(0.1902479 -1.2841425e-12 0)
(0.1902479 -9.7533287e-13 0)
(0.1902479 -7.5550519e-13 0)
(0.1902479 -4.4510108e-13 0)
(0.1902479 -5.2463363e-13 0)
(0.1902479 -6.1159386e-13 0)
(0.1902479 -9.4559202e-13 0)
(0.1902479 -1.0917445e-12 0)
(0.1902479 -1.3388271e-12 0)
(0.1902479 -1.3042041e-12 0)
(0.1902479 -1.3628924e-12 0)
(0.1902479 -1.3677452e-12 0)
(0.1902479 -1.6753964e-12 0)
(0.1902479 -1.8348182e-12 0)
(0.1902479 -1.8205575e-12 0)
(0.1902479 -1.346441e-12 0)
(0.1902479 -7.1229147e-13 0)
(0.1902479 -1.3985913e-15 0)
(0.1902479 7.0972301e-13 0)
(0.1902479 1.3142551e-12 0)
(0.1902479 1.4712382e-12 0)
(0.1902479 1.1889931e-12 0)
(0.1902479 5.1310984e-13 0)
(0.1902479 -1.1009372e-13 0)
(0.1902479 -6.4996452e-13 0)
(0.1902479 -1.0938175e-12 0)
(0.1902479 -1.4327382e-12 0)
(0.1902479 -1.5992148e-12 0)
(0.1902479 -1.4514009e-12 0)
(0.1902479 -9.7428605e-13 0)
(0.1902479 -3.4050225e-13 0)
(0.1902479 2.2540238e-13 0)
(0.1902479 7.1208871e-13 0)
(0.1902479 1.1699785e-12 0)
(0.1902479 1.4251488e-12 0)
(0.1902479 1.3979187e-12 0)
(0.1902479 1.0995876e-12 0)
(0.1902479 4.3758658e-13 0)
(0.1902479 -1.5758785e-13 0)
(0.1902479 -9.172075e-13 0)
(0.1902479 -1.5181647e-12 0)
(0.1902479 -1.7460585e-12 0)
(0.1902479 -1.479096e-12 0)
(0.1902479 -7.7124116e-13 0)
(0.1902479 -1.1017558e-13 0)
(0.1902479 4.5069116e-13 0)
(0.1902479 9.5771276e-13 0)
(0.1902479 1.230436e-12 0)
(0.1902479 1.4733815e-12 0)
(0.1902479 1.3643646e-12 0)
(0.1902479 1.1314069e-12 0)
(0.1902479 3.1588777e-13 0)
(0.1902479 -3.8410664e-13 0)
(0.1902479 -1.2809749e-12 0)
(0.1902479 -1.5490171e-12 0)
(0.1902479 -1.046588e-12 0)
(0.1902479 -6.9738068e-14 0)
(0.1902479 8.6219692e-13 0)
(0.1902479 1.3136965e-12 0)
(0.1902479 9.828092e-13 0)
(0.1902479 2.2529639e-13 0)
(0.1902479 -7.1663087e-13 0)
(0.1902479 -1.3556726e-12 0)
(0.1902479 -1.4553261e-12 0)
(0.1902479 -1.0682903e-12 0)
(0.1902479 -2.1051574e-13 0)
(0.1902479 6.281082e-13 0)
(0.1902479 1.388275e-12 0)
(0.1902479 1.6430778e-12 0)
(0.1902479 1.3860667e-12 0)
(0.1902479 5.8003714e-13 0)
(0.1902479 -2.9113581e-13 0)
(0.1902479 -1.1747576e-12 0)
(0.1902479 -1.5202405e-12 0)
(0.1902479 -1.2544217e-12 0)
(0.1902479 -3.6085607e-13 0)
(0.1902479 5.0122904e-13 0)
(0.1902479 1.3638736e-12 0)
(0.1902479 1.5432529e-12 0)
(0.1902479 1.1168862e-12 0)
(0.1902479 1.6541302e-13 0)
(0.1902479 -8.2574305e-13 0)
(0.1902479 -1.5374831e-12 0)
(0.1902479 -1.4654962e-12 0)
(0.1902479 -8.0966487e-13 0)
(0.1902479 2.5821496e-13 0)
(0.1902479 1.1245305e-12 0)
(0.1902479 1.3176173e-12 0)
(0.1902479 7.624102e-13 0)
(0.1902479 -4.0215489e-13 0)
(0.1902479 -1.2457921e-12 0)
(0.1902479 -1.3389384e-12 0)
(0.1902479 -5.9720256e-13 0)
(0.1902479 4.055576e-13 0)
(0.1902479 1.124832e-12 0)
(0.1902479 1.0226697e-12 0)
(0.1902479 5.4744186e-13 0)
(0.1902479 -2.7600488e-13 0)
(0.1902479 -8.0839303e-13 0)
(0.1902479 -1.1955631e-12 0)
(0.1902479 -1.2663075e-12 0)
(0.1902479 -1.3000917e-12 0)
(0.1902479 -1.1253544e-12 0)
(0.1902479 -9.2708615e-13 0)
(0.1902479 -8.4723863e-13 0)
(0.1902479 -1.4448825e-12 0)
(0.1902479 -1.8081486e-12 0)
(0.1902479 -1.1050371e-12 0)
(0.1902479 2.3528829e-15 0)
(0.59346672 0.2146733 0)
(0.54593347 0.075998409 0)
(0.39702192 0.039312293 0)
(0.34953973 0.01972055 0)
(0.30792187 0.010726729 0)
(0.28963523 0.0061583743 0)
(0.27651264 0.003476183 0)
(0.26994405 0.0020291013 0)
(0.26565503 0.0011409836 0)
(0.26342423 0.00065139837 0)
(0.26206335 0.00035632547 0)
(0.26136077 0.00019486788 0)
(0.26095907 0.00010129124 0)
(0.26076048 5.1590545e-05 0)
(0.260656 2.4316621e-05 0)
(0.26060945 1.0645076e-05 0)
(0.26058866 3.7618424e-06 0)
(0.26058217 7.1278731e-07 0)
(0.26058122 -5.4172003e-07 0)
(0.26058278 -8.8353681e-07 0)
(0.2605848 -8.6410265e-07 0)
(0.26058673 -7.0528591e-07 0)
(0.26058825 -5.2965077e-07 0)
(0.26058939 -3.7490342e-07 0)
(0.26059018 -2.556007e-07 0)
(0.26059072 -1.6870259e-07 0)
(0.26059108 -1.086866e-07 0)
(0.2605913 -6.8439309e-08 0)
(0.26059144 -4.2280017e-08 0)
(0.26059153 -2.562046e-08 0)
(0.26059159 -1.5247805e-08 0)
(0.26059162 -8.8992465e-09 0)
(0.26059163 -5.0922672e-09 0)
(0.26059165 -2.8494672e-09 0)
(0.26059165 -1.5553631e-09 0)
(0.26059165 -8.220501e-10 0)
(0.26059166 -4.1687097e-10 0)
(0.26059166 -1.9867868e-10 0)
(0.26059166 -8.6334166e-11 0)
(0.26059166 -3.0741288e-11 0)
(0.26059166 -5.1346237e-12 0)
(0.26059166 5.5043593e-12 0)
(0.26059166 9.3481467e-12 0)
(0.26059166 9.783949e-12 0)
(0.26059166 9.1672696e-12 0)
(0.26059166 6.7246769e-12 0)
(0.26059166 3.9735584e-12 0)
(0.26059166 1.2127405e-12 0)
(0.26059166 6.8065893e-13 0)
(0.26059166 4.497591e-13 0)
(0.26059166 1.6782623e-12 0)
(0.26059166 1.3033227e-12 0)
(0.26059166 1.5617944e-12 0)
(0.26059166 3.7828404e-13 0)
(0.26059166 2.997591e-13 0)
(0.26059166 -7.441113e-13 0)
(0.26059166 -9.5127628e-13 0)
(0.26059166 -1.6989564e-12 0)
(0.26059166 -9.9946095e-13 0)
(0.26059166 -1.3318225e-12 0)
(0.26059166 -6.5175876e-13 0)
(0.26059166 -1.1724115e-12 0)
(0.26059166 -9.9629989e-13 0)
(0.26059166 -1.9442911e-12 0)
(0.26059166 -2.0667693e-12 0)
(0.26059166 -2.690328e-12 0)
(0.26059166 -2.548397e-12 0)
(0.26059166 -2.6700534e-12 0)
(0.26059166 -2.6852879e-12 0)
(0.26059166 -2.7974985e-12 0)
(0.26059166 -2.8239066e-12 0)
(0.26059166 -2.545909e-12 0)
(0.26059166 -1.9127066e-12 0)
(0.26059166 -1.0790925e-12 0)
(0.26059166 -6.0446599e-13 0)
(0.26059166 -1.5958561e-13 0)
(0.26059166 -2.042381e-13 0)
(0.26059166 2.5379161e-13 0)
(0.26059166 7.6955634e-14 0)
(0.26059166 2.5702756e-13 0)
(0.26059166 -5.9565808e-13 0)
(0.26059166 -8.5235315e-13 0)
(0.26059166 -1.8474727e-12 0)
(0.26059166 -1.7510077e-12 0)
(0.26059166 -2.2166933e-12 0)