/*--------------------------------*- C++ -*----------------------------------*\
| =========                 |                                                 |
| \\      /  F ield         | OpenFOAM: The Open Source CFD Toolbox           |
|  \\    /   O peration     | Version:  2206                                  |
|   \\  /    A nd           | Website:  www.openfoam.com                      |
|    \\/     M anipulation  |                                                 |
\*---------------------------------------------------------------------------*/
FoamFile
{
    version     2.0;
    format      ascii;
    arch        "LSB;label=32;scalar=64";
    class       surfaceScalarField;
    location    "27";
    object      phi;
}
// * * * * * * * * * * * * * * * * * * * * * * * * * * * * * * * * * * * * * //

dimensions      [0 3 -1 0 0 0 0];

oriented        oriented;

internalField   nonuniform List<scalar> 
29650
(
6.0867648e-05
0.00020579915
3.2718169e-05
2.8149481e-05
2.4599021e-05
8.1191627e-06
2.0417849e-05
4.1811912e-06
1.8552178e-05
1.8656834e-06
1.7373701e-05
1.1784808e-06
1.6781661e-05
5.9203428e-07
1.6412314e-05
3.6934047e-07
1.622082e-05
1.9149187e-07
1.6106685e-05
1.1413819e-07
1.6048258e-05
5.8435722e-08
1.6015474e-05
3.279298e-08
1.5999542e-05
1.5939866e-08
1.5991376e-05
8.1704836e-09
1.5987889e-05
3.4893059e-09
1.598644e-05
1.4491353e-09
1.5986091e-05
3.4924949e-10
1.5986138e-05
-4.8782127e-11
1.5986349e-05
-2.1207647e-10
1.5986569e-05
-2.2074287e-10
1.5986762e-05
-1.9292919e-10
1.5986908e-05
-1.4655673e-10
1.5987014e-05
-1.063972e-10
1.5987087e-05
-7.2894772e-11
1.5987136e-05
-4.8732739e-11
1.5987167e-05
-3.1500532e-11
1.5987187e-05
-2.0010112e-11
1.59872e-05
-1.2409579e-11
1.5987208e-05
-7.5749003e-12
1.5987212e-05
-4.5265598e-12
1.5987215e-05
-2.6630284e-12
1.5987216e-05
-1.538095e-12
1.5987217e-05
-8.7598062e-13
1.5987218e-05
-4.8839769e-13
1.5987218e-05
-2.6547915e-13
1.5987218e-05
-1.3901158e-13
1.5987218e-05
-7.0145566e-14
1.5987218e-05
-3.3885745e-14
1.5987218e-05
-1.5527622e-14
1.5987218e-05
-5.929138e-15
1.5987218e-05
-8.6972663e-16
1.5987218e-05
1.8371123e-15
1.5987218e-05
2.7379405e-15
1.5987218e-05
2.386957e-15
1.5987218e-05
1.1002043e-15
1.5987218e-05
4.6033658e-16
1.5987218e-05
8.7585055e-16
1.5987218e-05
2.0904506e-15
1.5987218e-05
2.903093e-15
1.5987218e-05
3.3061536e-15
1.5987218e-05
2.8716075e-15
1.5987218e-05
2.3476479e-15
1.5987218e-05
1.7572106e-15
1.5987218e-05
1.5470184e-15
1.5987218e-05
1.3579728e-15
1.5987218e-05
1.3973564e-15
1.5987218e-05
1.1049609e-15
1.5987218e-05
1.0207484e-15
1.5987218e-05
8.8652767e-16
1.5987218e-05
1.1060563e-15
1.5987218e-05
9.2531675e-16
1.5987218e-05
6.8377021e-16
1.5987218e-05
1.8592427e-16
1.5987218e-05
-5.5122017e-17
1.5987218e-05
-2.7916661e-16
1.5987218e-05
-1.1662184e-16
1.5987218e-05
8.3192546e-17
1.5987218e-05
6.1280132e-16
1.5987218e-05
8.4871515e-16
1.5987218e-05
1.0884041e-15
1.5987218e-05
5.8629918e-16
1.5987218e-05
4.7296529e-16
1.5987218e-05
2.6483754e-16
1.5987218e-05
9.3189778e-16
1.5987218e-05
1.456747e-15
1.5987218e-05
2.2043022e-15
1.5987218e-05
1.8262775e-15
1.5987218e-05
1.4264387e-15
1.5987218e-05
4.3951171e-16
1.5987218e-05
-6.5042576e-17
1.5987218e-05
-7.0228384e-16
1.5987218e-05
-8.3386275e-16
1.5987218e-05
-1.2227699e-15
1.5987218e-05
-1.1661865e-15
1.5987218e-05
-1.3953949e-15
1.5987218e-05
-1.2300047e-15
1.5987218e-05
-1.3641489e-15
1.5987218e-05
-1.1765593e-15
1.5987218e-05
-1.2698921e-15
1.5987218e-05
-1.0899299e-15
1.5987218e-05
-1.1779903e-15
1.5987218e-05
-1.1028629e-15
1.5987218e-05
-1.2172985e-15
1.5987218e-05
-1.1329277e-15
1.5987218e-05
-1.1386504e-15
1.5987218e-05
-1.1856859e-15
1.5987218e-05
-1.3966273e-15
1.5987218e-05
-1.4661649e-15
1.5987218e-05
-1.2412126e-15
1.5987218e-05
-8.8152298e-16
1.5987218e-05
-7.4450004e-16
1.5987218e-05
-1.0250388e-15
1.5987218e-05
-1.5818353e-15
1.5987218e-05
-2.1726165e-15
1.5987218e-05
-2.1806398e-15
1.5987218e-05
-1.7070754e-15
1.5987218e-05
-5.4123162e-16
1.5987218e-05
5.4803309e-16
1.5987218e-05
1.3880714e-15
1.5987218e-05
1.7526955e-15
1.5987218e-05
1.8323019e-15
1.5987218e-05
1.3266262e-15
1.5987218e-05
4.093828e-16
1.5987218e-05
-8.4614823e-16
1.5987218e-05
-1.7225859e-15
1.5987218e-05
-2.2210012e-15
1.5987218e-05
-1.8262268e-15
1.5987218e-05
-1.1638698e-15
1.5987218e-05
-2.8397929e-16
1.5987218e-05
2.4496423e-16
1.5987218e-05
6.2575749e-16
1.5987218e-05
7.7189459e-16
1.5987218e-05
9.2480528e-16
1.5987218e-05
9.6604711e-16
1.5987218e-05
1.0501068e-15
1.5987218e-05
1.0297525e-15
1.5987218e-05
1.0486139e-15
1.5987218e-05
1.0050996e-15
1.5987218e-05
1.0151633e-15
1.5987218e-05
1.00773e-15
1.5987218e-05
1.0356622e-15
1.5987218e-05
1.0558861e-15
1.5987218e-05
1.0811959e-15
1.5987218e-05
1.1062254e-15
1.5987218e-05
1.1122785e-15
1.5987218e-05
1.1249472e-15
1.5987218e-05
1.1127248e-15
1.5987218e-05
1.1164854e-15
1.5987218e-05
1.095643e-15
1.5987218e-05
1.1024855e-15
1.5987218e-05
1.0702303e-15
1.5987218e-05
1.0737794e-15
1.5987218e-05
1.0420732e-15
1.5987218e-05
1.0729679e-15
1.5987218e-05
1.0285505e-15
1.5987218e-05
1.023712e-15
1.5987218e-05
9.5583071e-16
1.5987218e-05
1.0460631e-15
1.5987218e-05
1.078171e-15
1.5987218e-05
1.1284035e-15
1.5987218e-05
8.4098064e-16
1.5987218e-05
6.0748953e-16
1.5987218e-05
5.9077984e-16
1.5987218e-05
1.0552062e-15
1.5987218e-05
1.6347891e-15
1.5987218e-05
2.1262921e-15
1.5987218e-05
1.9291265e-15
1.5987218e-05
1.4422647e-15
1.5987218e-05
6.1825381e-16
1.5987218e-05
1.0384768e-16
1.5987218e-05
-2.9763924e-16
1.5987218e-05
-5.0374959e-16
1.5987218e-05
-7.0827029e-16
1.5987218e-05
-7.8935492e-16
1.5987218e-05
-9.3199803e-16
1.5987218e-05
-9.4677099e-16
1.5987218e-05
-9.656216e-16
1.5987218e-05
-9.3956915e-16
1.5987218e-05
-9.5083061e-16
1.5987218e-05
-9.2924346e-16
1.5987218e-05
-9.4763498e-16
1.5987218e-05
-9.2700334e-16
1.5987218e-05
-9.3872925e-16
1.5987218e-05
-9.0494558e-16
1.5987218e-05
-9.151978e-16
1.5987218e-05
-8.8048802e-16
1.5987218e-05
-9.0981218e-16
1.5987218e-05
-8.7788888e-16
1.5987218e-05
-9.0414809e-16
1.5987218e-05
-8.8088301e-16
1.5987218e-05
-9.0374371e-16
1.5987218e-05
-9.098638e-16
1.5987218e-05
-8.961325e-16
1.5987218e-05
-8.8053215e-16
1.5987218e-05
-8.6674446e-16
1.5987218e-05
-8.9913104e-16
1.5987218e-05
-9.1149267e-16
1.5987218e-05
-9.3391157e-16
1.5987218e-05
-8.818197e-16
1.5987218e-05
-8.5464348e-16
1.5987218e-05
-8.1891244e-16
1.5987218e-05
-8.9725898e-16
1.5987218e-05
-9.126399e-16
1.5987218e-05
-8.2502175e-16
1.5987218e-05
-5.328821e-16
1.5987218e-05
-4.1815144e-16
1.5987218e-05
-6.199301e-16
1.5987218e-05
-1.2664823e-15
1.5987218e-05
-1.8253833e-15
1.5987218e-05
-2.1954483e-15
1.5987218e-05
-1.8553729e-15
1.5987218e-05
-1.2063214e-15
1.5987218e-05
-4.2963076e-16
1.5987218e-05
-1.3404619e-16
1.5987218e-05
4.5131662e-17
1.5987218e-05
1.4511258e-16
1.5987218e-05
7.1211564e-16
1.5987218e-05
1.3088131e-15
1.5987218e-05
1.9536744e-15
1.5987218e-05
1.9794252e-15
1.5987218e-05
1.628068e-15
1.5987218e-05
9.3270014e-16
1.5987218e-05
3.2120349e-16
1.5987218e-05
-1.7868165e-16
1.5987218e-05
-5.8055565e-16
1.5987218e-05
-8.9935914e-16
1.5987218e-05
-9.9061712e-16
1.5987218e-05
-8.4304411e-16
1.5987218e-05
-6.4259662e-16
1.5987218e-05
-7.4007074e-16
1.5987218e-05
-1.2529255e-15
1.5987218e-05
-1.90781e-15
1.5987218e-05
-2.3057827e-15
1.5987218e-05
-2.1550914e-15
1.5987218e-05
-1.5422277e-15
1.5987218e-05
-8.0551631e-16
1.5987218e-05
-1.2035974e-16
1.5987218e-05
4.4130608e-16
1.5987218e-05
7.0518097e-16
1.5987218e-05
7.3207649e-16
1.5987218e-05
5.1334012e-16
1.5987218e-05
5.7229158e-16
1.5987218e-05
9.8927539e-16
1.5987218e-05
1.7036538e-15
1.5987218e-05
2.0209204e-15
1.5987218e-05
2.0649619e-15
1.5987218e-05
1.6386362e-15
1.5987218e-05
1.2073286e-15
1.5987218e-05
5.3850088e-16
1.5987218e-05
-3.2966977e-16
1.5987218e-05
-1.306427e-15
1.5987218e-05
-2.053595e-15
1.5987218e-05
-2.0902654e-15
1.5987218e-05
-1.5961461e-15
1.5987218e-05
-7.416841e-16
1.5987218e-05
-1.4954652e-16
1.5987218e-05
6.5422217e-17
1.5987218e-05
1.8754789e-16
1.5987218e-05
5.1958404e-16
1.5987218e-05
1.193744e-15
1.5987218e-05
1.8983766e-15
1.5987218e-05
2.2775988e-15
1.5987218e-05
2.0498942e-15
1.5987218e-05
1.421323e-15
1.5987218e-05
6.426022e-16
1.5987218e-05
5.9492447e-17
1.5987218e-05
-3.7508464e-16
1.5987218e-05
-6.2584642e-16
1.5987218e-05
-8.0131858e-16
1.5987218e-05
-8.8050376e-16
1.5987218e-05
-1.0019096e-15
1.5987218e-05
-1.0545287e-15
1.5987218e-05
-9.8395614e-16
1.5987218e-05
-7.1227678e-16
1.5987218e-05
-4.9936044e-16
1.5987218e-05
-6.0237456e-16
1.5987218e-05
-1.1924862e-15
1.5987218e-05
-1.8396436e-15
1.5987218e-05
-2.1529134e-15
1.5987218e-05
-1.8958145e-15
1.5987218e-05
-1.3157966e-15
1.5987218e-05
-8.6146381e-16
1.5987218e-05
-4.7693365e-16
1.5987218e-05
1.2797236e-17
1.5987218e-05
8.4420478e-16
1.5987218e-05
1.6957741e-15
1.5987218e-05
2.1336622e-15
1.5987218e-05
2.0586277e-15
1.5987218e-05
1.4195066e-15
1.5987218e-05
7.1692291e-16
1.5987218e-05
7.2836196e-17
1.5987218e-05
-3.8914765e-16
1.5987218e-05
-6.8461824e-16
1.5987218e-05
-8.5787527e-16
1.5987218e-05
-9.058412e-16
1.5987218e-05
-9.0837924e-16
1.5987218e-05
-8.9413236e-16
1.5987218e-05
-9.2397796e-16
1.5987218e-05
-9.2636765e-16
1.5987218e-05
-9.7207619e-16
1.5987218e-05
-9.2752124e-16
1.5987218e-05
-8.8977148e-16
1.5987218e-05
-9.0313318e-16
1.5987218e-05
-1.1023908e-15
1.5987218e-05
-1.1020923e-15
1.5987218e-05
-6.4811898e-16
1.5987218e-05
-2.8367198e-16
1.5987218e-05
-9.9847994e-16
1.5987218e-05
-2.0838261e-15
-1.419487e-15
0.00014027132
0.00033219462
9.2549242e-05
7.5871558e-05
7.0338072e-05
3.0330348e-05
5.9620314e-05
1.4898968e-05
5.4019643e-05
7.4663669e-06
5.0795344e-05
4.4027816e-06
4.901105e-05
2.3763223e-06
4.7964745e-05
1.4156381e-06
4.7384384e-05
7.7184972e-07
4.7052233e-05
4.462919e-07
4.6872682e-05
2.3799474e-07
4.677453e-05
1.3095388e-07
4.6724187e-05
6.6291038e-08
4.6698685e-05
3.3677004e-08
4.6686925e-05
1.525198e-08
4.6681893e-05
6.4815407e-09
4.6680252e-05
1.9895752e-09
4.6680058e-05
1.4418981e-10
4.6680445e-05
-5.9969702e-10
4.6680961e-05
-7.3810268e-10
4.6681443e-05
-6.7494892e-10
4.6681826e-05
-5.3028577e-10
4.668211e-05
-3.9063651e-10
4.6682309e-05
-2.7191448e-10
4.6682444e-05
-1.8338847e-10
4.6682532e-05
-1.19774e-10
4.6682589e-05
-7.6589523e-11
4.6682624e-05
-4.7864523e-11
4.6682646e-05
-2.9385506e-11
4.6682659e-05
-1.7683782e-11
4.6682667e-05
-1.0461911e-11
4.6682672e-05
-6.076673e-12
4.6682674e-05
-3.470367e-12
4.6682676e-05
-1.9400693e-12
4.6682676e-05
-1.0572658e-12
4.6682677e-05
-5.5747343e-13
4.6682677e-05
-2.8251536e-13
4.6682677e-05
-1.366394e-13
4.6682677e-05
-6.1271622e-14
4.6682677e-05
-2.325909e-14
4.6682677e-05
-4.3178082e-15
4.6682677e-05
4.3017965e-15
4.6682677e-05
7.7352999e-15
4.6682677e-05
7.0248652e-15
4.6682677e-05
4.2694812e-15
4.6682677e-05
2.2870658e-15
4.6682677e-05
2.7271342e-15
4.6682677e-05
4.3699967e-15
4.6682677e-05
6.486522e-15
4.6682677e-05
6.5542731e-15
4.6682677e-05
6.1440992e-15
4.6682677e-05
4.706631e-15
4.6682677e-05
3.9380536e-15
4.6682677e-05
3.3089814e-15
4.6682677e-05
3.1347849e-15
4.6682677e-05
2.9121173e-15
4.6682677e-05
2.353175e-15
4.6682677e-05
1.3641006e-15
4.6682677e-05
2.0626036e-15
4.6682677e-05
1.6130407e-15
4.6682677e-05
2.1631029e-15
4.6682677e-05
1.0305399e-15
4.6682677e-05
6.7279762e-16
4.6682677e-05
-1.9576627e-16
4.6682677e-05
-5.7043306e-17
4.6682677e-05
7.1609923e-17
4.6682677e-05
6.6700613e-16
4.6682677e-05
1.4342873e-15
4.6682677e-05
2.057775e-15
4.6682677e-05
1.7460203e-15
4.6682677e-05
1.7069296e-15
4.6682677e-05
4.0126703e-16
4.6682677e-05
8.6613059e-16
4.6682677e-05
1.2171231e-15
4.6682677e-05
3.2942967e-15
4.6682677e-05
3.8924924e-15
4.6682677e-05
4.1005769e-15
4.6682677e-05
2.5390345e-15
4.6682677e-05
1.3275037e-15
4.6682677e-05
-3.9472071e-16
4.6682677e-05
-8.8931439e-16
4.6682677e-05
-1.9366668e-15
4.6682677e-05
-1.9274964e-15
4.6682677e-05
-2.6145464e-15
4.6682677e-05
-2.3159048e-15
4.6682677e-05
-2.722801e-15
4.6682677e-05
-2.2908984e-15
4.6682677e-05
-2.5913612e-15
4.6682677e-05
-2.1520144e-15
4.6682677e-05
-2.38832e-15
4.6682677e-05
-2.0076994e-15
4.6682677e-05
-2.3683333e-15
4.6682677e-05
-2.1367637e-15
4.6682677e-05
-2.4296141e-15
4.6682677e-05
-2.0153679e-15
4.6682677e-05
-2.4716229e-15
4.6682677e-05
-2.5627953e-15
4.6682677e-05
-3.0673039e-15
4.6682677e-05
-2.3065475e-15
4.6682677e-05
-1.9089572e-15
4.6682677e-05
-1.3569164e-15
4.6682677e-05
-1.9896211e-15
4.6682677e-05
-3.0260016e-15
4.6682677e-05
-4.2609723e-15
4.6682677e-05
-4.3226874e-15
4.6682677e-05
-3.5843978e-15
4.6682677e-05
-1.1946193e-15
4.6682677e-05
8.2731046e-16
4.6682677e-05
2.7358254e-15
4.6682677e-05
3.4907676e-15
4.6682677e-05
3.7291382e-15
4.6682677e-05
2.8478956e-15
4.6682677e-05
1.083973e-15
4.6682677e-05
-1.3624494e-15
4.6682677e-05
-3.304846e-15
4.6682677e-05
-4.3523581e-15
4.6682677e-05
-3.6338541e-15
4.6682677e-05
-2.3935303e-15
4.6682677e-05
-6.0981728e-16
4.6682677e-05
3.8549243e-16
4.6682677e-05
1.1610438e-15
4.6682677e-05
1.4316517e-15
4.6682677e-05
1.7543394e-15
4.6682677e-05
1.8429807e-15
4.6682677e-05
2.0221219e-15
4.6682677e-05
1.9852391e-15
4.6682677e-05
2.0215198e-15
4.6682677e-05
1.9309899e-15
4.6682677e-05
1.9548533e-15
4.6682677e-05
1.9321062e-15
4.6682677e-05
2.0011137e-15
4.6682677e-05
2.0340366e-15
4.6682677e-05
2.0972227e-15
4.6682677e-05
2.1378339e-15
4.6682677e-05
2.1638804e-15
4.6682677e-05
2.1749523e-15
4.6682677e-05
2.1643329e-15
4.6682677e-05
2.1548326e-15
4.6682677e-05
2.1319253e-15
4.6682677e-05
2.1269252e-15
4.6682677e-05
2.0841376e-15
4.6682677e-05
2.0640404e-15
4.6682677e-05
2.0221324e-15
4.6682677e-05
2.0582591e-15
4.6682677e-05
2.0031816e-15
4.6682677e-05
1.9700886e-15
4.6682677e-05
1.855984e-15
4.6682677e-05
1.9825053e-15
4.6682677e-05
2.1098488e-15
4.6682677e-05
2.1722042e-15
4.6682677e-05
1.6516656e-15
4.6682677e-05
1.1354757e-15
4.6682677e-05
1.0784441e-15
4.6682677e-05
1.8930574e-15
4.6682677e-05
3.2016691e-15
4.6682677e-05
4.1362658e-15
4.6682677e-05
3.8890823e-15
4.6682677e-05
2.9400108e-15
4.6682677e-05
1.3164238e-15
4.6682677e-05
3.0493812e-16
4.6682677e-05
-4.8566672e-16
4.6682677e-05
-9.1566185e-16
4.6682677e-05
-1.3308652e-15
4.6682677e-05
-1.5169801e-15
4.6682677e-05
-1.7986038e-15
4.6682677e-05
-1.7928176e-15
4.6682677e-05
-1.8412059e-15
4.6682677e-05
-1.7699798e-15
4.6682677e-05
-1.8096867e-15
4.6682677e-05
-1.75184e-15
4.6682677e-05
-1.8060827e-15
4.6682677e-05
-1.7507448e-15
4.6682677e-05
-1.7902164e-15
4.6682677e-05
-1.711901e-15
4.6682677e-05
-1.7390955e-15
4.6682677e-05
-1.6667259e-15
4.6682677e-05
-1.7207253e-15
4.6682677e-05
-1.6733209e-15
4.6682677e-05
-1.7126539e-15
4.6682677e-05
-1.6844473e-15
4.6682677e-05
-1.7238715e-15
4.6682677e-05
-1.7407343e-15
4.6682677e-05
-1.7329174e-15
4.6682677e-05
-1.683707e-15
4.6682677e-05
-1.6858749e-15
4.6682677e-05
-1.7090595e-15
4.6682677e-05
-1.7842161e-15
4.6682677e-05
-1.7858433e-15
4.6682677e-05
-1.7369374e-15
4.6682677e-05
-1.6416723e-15
4.6682677e-05
-1.6056466e-15
4.6682677e-05
-1.7325934e-15
4.6682677e-05
-1.8181415e-15
4.6682677e-05
-1.6683022e-15
4.6682677e-05
-1.088003e-15
4.6682677e-05
-8.0387286e-16
4.6682677e-05
-1.2028485e-15
4.6682677e-05
-2.4018754e-15
4.6682677e-05
-3.610517e-15
4.6682677e-05
-4.3563426e-15
4.6682677e-05
-3.739381e-15
4.6682677e-05
-2.4557841e-15
4.6682677e-05
-9.0589236e-16
4.6682677e-05
-2.6120213e-16
4.6682677e-05
4.1905987e-17
4.6682677e-05
2.5965462e-16
4.6682677e-05
1.273121e-15
4.6682677e-05
2.5645388e-15
4.6682677e-05
3.8239581e-15
4.6682677e-05
4.0196962e-15
4.6682677e-05
3.3348196e-15
4.6682677e-05
1.9699008e-15
4.6682677e-05
7.9223242e-16
4.6682677e-05
-2.1822708e-16
4.6682677e-05
-9.6944357e-16
4.6682677e-05
-1.661378e-15
4.6682677e-05
-1.8680224e-15
4.6682677e-05
-1.597537e-15
4.6682677e-05
-1.1261543e-15
4.6682677e-05
-1.2736362e-15
4.6682677e-05
-2.2089128e-15
4.6682677e-05
-3.5471344e-15
4.6682677e-05
-4.4384062e-15
4.6682677e-05
-4.1772267e-15
4.6682677e-05
-3.0218144e-15
4.6682677e-05
-1.628924e-15
4.6682677e-05
-2.8524227e-16
4.6682677e-05
7.6984779e-16
4.6682677e-05
1.3562532e-15
4.6682677e-05
1.4159531e-15
4.6682677e-05
9.6968668e-16
4.6682677e-05
9.7874249e-16
4.6682677e-05
1.8573642e-15
4.6682677e-05
3.1525647e-15
4.6682677e-05
4.0050581e-15
4.6682677e-05
4.044832e-15
4.6682677e-05
3.2446744e-15
4.6682677e-05
2.4719235e-15
4.6682677e-05
1.1684478e-15
4.6682677e-05
-4.1514372e-16
4.6682677e-05
-2.4958147e-15
4.6682677e-05
-3.9445329e-15
4.6682677e-05
-4.1883136e-15
4.6682677e-05
-3.24891e-15
4.6682677e-05
-1.550623e-15
4.6682677e-05
-4.0440877e-16
4.6682677e-05
5.1790274e-17
4.6682677e-05
2.5105465e-16
4.6682677e-05
8.5658121e-16
4.6682677e-05
2.120877e-15
4.6682677e-05
3.6231583e-15
4.6682677e-05
4.4178062e-15
4.6682677e-05
4.0394276e-15
4.6682677e-05
2.8447824e-15
4.6682677e-05
1.3429747e-15
4.6682677e-05
1.932538e-16
4.6682677e-05
-6.4040204e-16
4.6682677e-05
-1.169499e-15
4.6682677e-05
-1.4953568e-15
4.6682677e-05
-1.6860599e-15
4.6682677e-05
-1.8645752e-15
4.6682677e-05
-2.0314931e-15
4.6682677e-05
-1.8927292e-15
4.6682677e-05
-1.3883056e-15
4.6682677e-05
-8.6417045e-16
4.6682677e-05
-1.0718273e-15
4.6682677e-05
-2.1442348e-15
4.6682677e-05
-3.5433734e-15
4.6682677e-05
-4.2205562e-15
4.6682677e-05
-3.7441071e-15
4.6682677e-05
-2.6324088e-15
4.6682677e-05
-1.7249188e-15
4.6682677e-05
-1.0726617e-15
4.6682677e-05
-1.5218608e-16
4.6682677e-05
1.4732077e-15
4.6682677e-05
3.1741174e-15
4.6682677e-05
4.2391913e-15
4.6682677e-05
4.0933311e-15
4.6682677e-05
2.8692022e-15
4.6682677e-05
1.539834e-15
4.6682677e-05
2.2289118e-16
4.6682677e-05
-6.3622472e-16
4.6682677e-05
-1.2774156e-15
4.6682677e-05
-1.6015031e-15
4.6682677e-05
-1.7298739e-15
4.6682677e-05
-1.7388084e-15
4.6682677e-05
-1.7310556e-15
4.6682677e-05
-1.7251079e-15
4.6682677e-05
-1.7797924e-15
4.6682677e-05
-1.8158535e-15
4.6682677e-05
-1.7912209e-15
4.6682677e-05
-1.662449e-15
4.6682677e-05
-1.6990357e-15
4.6682677e-05
-2.0387431e-15
4.6682677e-05
-2.1832387e-15
4.6682677e-05
-1.3065189e-15
4.6682677e-05
-4.1951235e-16
4.6682677e-05
-1.598905e-15
4.6682677e-05
-4.0949903e-15
-3.0896557e-15
0.00019469214
0.00040416928
0.00014360962
0.00012695409
0.00011230147
6.1638495e-05
9.6619294e-05
3.0581151e-05
8.7762221e-05
1.6323443e-05
8.2755406e-05
9.4095981e-06
7.9871702e-05
5.2600276e-06
7.8206034e-05
3.0813041e-06
7.7256668e-05
1.7212111e-06
7.6718194e-05
9.8476052e-07
7.6420462e-05
5.3572251e-07
7.6258218e-05
2.9319522e-07
7.6172993e-05
1.5151522e-07
7.61296e-05
7.7070249e-08
7.6108851e-05
3.6001656e-08
7.6099695e-05
1.5638131e-08
7.6096324e-05
5.3612762e-09
7.6095587e-05
8.8164493e-10
7.6095937e-05
-9.4850903e-10
7.6096611e-05
-1.412457e-09
7.609729e-05
-1.354175e-09
7.6097854e-05
-1.0937474e-09
7.609828e-05
-8.1682829e-10
7.6098584e-05
-5.7549605e-10
7.6098791e-05
-3.9109829e-10
7.6098929e-05
-2.5736925e-10
7.6099018e-05
-1.6545417e-10
7.6099074e-05
-1.0397202e-10
7.6099108e-05
-6.4116845e-11
7.609913e-05
-3.8775862e-11
7.6099142e-05
-2.3039289e-11
7.609915e-05
-1.3434921e-11
7.6099154e-05
-7.6918391e-12
7.6099156e-05
-4.3099431e-12
7.6099157e-05
-2.3558871e-12
7.6099158e-05
-1.2478639e-12
7.6099158e-05
-6.3634934e-13
7.6099159e-05
-3.0862694e-13
7.6099159e-05
-1.3895552e-13
7.6099159e-05
-5.3464966e-14
7.6099159e-05
-1.2145589e-14
7.6099159e-05
6.2584367e-15
7.6099159e-05
1.2297406e-14
7.6099159e-05
1.1650896e-14
7.6099159e-05
7.9466169e-15
7.6099159e-05
5.4115572e-15
7.6099159e-05
5.2578721e-15
7.6099159e-05
6.6451322e-15
7.6099159e-05
7.8970491e-15
7.6099159e-05
7.9325109e-15
7.6099159e-05
6.8150946e-15
7.6099159e-05
5.3478786e-15
7.6099159e-05
4.3182281e-15
7.6099159e-05
3.9520555e-15
7.6099159e-05
3.83715e-15
7.6099159e-05
3.8970231e-15
7.6099159e-05
3.3559544e-15
7.6099159e-05
2.8382958e-15
7.6099159e-05
2.8553386e-15
7.6099159e-05
2.7362325e-15
7.6099159e-05
2.5994099e-15
7.6099159e-05
1.705954e-15
7.6099159e-05
9.3871148e-16
7.6099159e-05
2.4979547e-16
7.6099159e-05
1.5766705e-16
7.6099159e-05
5.1522004e-16
7.6099159e-05
1.1672562e-15
7.6099159e-05
2.232138e-15
7.6099159e-05
2.8137905e-15
7.6099159e-05
2.9332654e-15
7.6099159e-05
2.2925148e-15
7.6099159e-05
1.623281e-15
7.6099159e-05
1.6835871e-15
7.6099159e-05
2.6075936e-15
7.6099159e-05
3.9505864e-15
7.6099159e-05
4.7144489e-15
7.6099159e-05
3.8371371e-15
7.6099159e-05
2.3399401e-15
7.6099159e-05
3.3130371e-16
7.6099159e-05
-1.0875789e-15
7.6099159e-05
-2.0847304e-15
7.6099159e-05
-2.6400128e-15
7.6099159e-05
-3.0719676e-15
7.6099159e-05
-3.2560955e-15
7.6099159e-05
-3.3984192e-15
7.6099159e-05
-3.3460493e-15
7.6099159e-05
-3.2994088e-15
7.6099159e-05
-3.1592387e-15
7.6099159e-05
-3.039498e-15
7.6099159e-05
-2.8861517e-15
7.6099159e-05
-2.8108735e-15
7.6099159e-05
-2.8794093e-15
7.6099159e-05
-2.9151462e-15
7.6099159e-05
-2.9856363e-15
7.6099159e-05
-2.8911032e-15
7.6099159e-05
-3.2704266e-15
7.6099159e-05
-3.5999078e-15
7.6099159e-05
-3.9080913e-15
7.6099159e-05
-3.2826605e-15
7.6099159e-05
-2.7711745e-15
7.6099159e-05
-2.4701632e-15
7.6099159e-05
-3.099658e-15
7.6099159e-05
-3.9888783e-15
7.6099159e-05
-4.7698076e-15
7.6099159e-05
-4.1677791e-15
7.6099159e-05
-2.8054667e-15
7.6099159e-05
-1.6621188e-16
7.6099159e-05
1.7992771e-15
7.6099159e-05
3.2168455e-15
7.6099159e-05
3.4982041e-15
7.6099159e-05
3.2750845e-15
7.6099159e-05
1.9725833e-15
7.6099159e-05
-5.0722288e-17
7.6099159e-05
-2.5573656e-15
7.6099159e-05
-4.1648719e-15
7.6099159e-05
-4.8274541e-15
7.6099159e-05
-3.5822311e-15
7.6099159e-05
-1.9970712e-15
7.6099159e-05
7.9414803e-18
7.6099159e-05
1.1251573e-15
7.6099159e-05
1.9514101e-15
7.6099159e-05
2.2208438e-15
7.6099159e-05
2.5411957e-15
7.6099159e-05
2.5986082e-15
7.6099159e-05
2.793515e-15
7.6099159e-05
2.7511307e-15
7.6099159e-05
2.8198778e-15
7.6099159e-05
2.7273014e-15
7.6099159e-05
2.7663925e-15
7.6099159e-05
2.7375055e-15
7.6099159e-05
2.8099037e-15
7.6099159e-05
2.8417983e-15
7.6099159e-05
2.9075368e-15
7.6099159e-05
2.9498192e-15
7.6099159e-05
2.9740179e-15
7.6099159e-05
2.9897555e-15
7.6099159e-05
2.9716846e-15
7.6099159e-05
2.9681776e-15
7.6099159e-05
2.9349694e-15
7.6099159e-05
2.9355178e-15
7.6099159e-05
2.8739019e-15
7.6099159e-05
2.8659327e-15
7.6099159e-05
2.8123138e-15
7.6099159e-05
2.8663094e-15
7.6099159e-05
2.7910648e-15
7.6099159e-05
2.7874377e-15
7.6099159e-05
2.6868215e-15
7.6099159e-05
2.8845385e-15
7.6099159e-05
2.9650138e-15
7.6099159e-05
3.0140727e-15
7.6099159e-05
2.410776e-15
7.6099159e-05
1.9724879e-15
7.6099159e-05
2.0381e-15
7.6099159e-05
2.9567033e-15
7.6099159e-05
4.0112098e-15
7.6099159e-05
4.6275277e-15
7.6099159e-05
3.7853638e-15
7.6099159e-05
2.4610191e-15
7.6099159e-05
5.680051e-16
7.6099159e-05
-5.2395819e-16
7.6099159e-05
-1.3264544e-15
7.6099159e-05
-1.7079399e-15
7.6099159e-05
-2.1153086e-15
7.6099159e-05
-2.2594085e-15
7.6099159e-05
-2.5663731e-15
7.6099159e-05
-2.5781011e-15
7.6099159e-05
-2.6400711e-15
7.6099159e-05
-2.5714177e-15
7.6099159e-05
-2.6111983e-15
7.6099159e-05
-2.5490963e-15
7.6099159e-05
-2.6037592e-15
7.6099159e-05
-2.5472314e-15
7.6099159e-05
-2.5900664e-15
7.6099159e-05
-2.5080039e-15
7.6099159e-05
-2.5460716e-15
7.6099159e-05
-2.4640164e-15
7.6099159e-05
-2.5400972e-15
7.6099159e-05
-2.4726344e-15
7.6099159e-05
-2.5394127e-15
7.6099159e-05
-2.4981736e-15
7.6099159e-05
-2.5608517e-15
7.6099159e-05
-2.5738017e-15
7.6099159e-05
-2.5608913e-15
7.6099159e-05
-2.5222062e-15
7.6099159e-05
-2.5272259e-15
7.6099159e-05
-2.5809699e-15
7.6099159e-05
-2.6407872e-15
7.6099159e-05
-2.6642752e-15
7.6099159e-05
-2.5885145e-15
7.6099159e-05
-2.5229557e-15
7.6099159e-05
-2.4923687e-15
7.6099159e-05
-2.6451259e-15
7.6099159e-05
-2.6713175e-15
7.6099159e-05
-2.4639012e-15
7.6099159e-05
-1.8877337e-15
7.6099159e-05
-1.7322749e-15
7.6099159e-05
-2.2328845e-15
7.6099159e-05
-3.4557837e-15
7.6099159e-05
-4.3274653e-15
7.6099159e-05
-4.6641673e-15
7.6099159e-05
-3.4794112e-15
7.6099159e-05
-1.8862563e-15
7.6099159e-05
-1.5623039e-16
7.6099159e-05
4.8007645e-16
7.6099159e-05
8.6625042e-16
7.6099159e-05
1.1521109e-15
7.6099159e-05
2.3303891e-15
7.6099159e-05
3.4827476e-15
7.6099159e-05
4.4906086e-15
7.6099159e-05
4.1583636e-15
7.6099159e-05
3.0201456e-15
7.6099159e-05
1.3261044e-15
7.6099159e-05
-5.9066159e-17
7.6099159e-05
-1.1362588e-15
7.6099159e-05
-1.9211801e-15
7.6099159e-05
-2.5322759e-15
7.6099159e-05
-2.6456337e-15
7.6099159e-05
-2.3297979e-15
7.6099159e-05
-1.9657045e-15
7.6099159e-05
-2.2656823e-15
7.6099159e-05
-3.2854601e-15
7.6099159e-05
-4.4399446e-15
7.6099159e-05
-4.8907041e-15
7.6099159e-05
-4.156779e-15
7.6099159e-05
-2.5704978e-15
7.6099159e-05
-9.0280929e-16
7.6099159e-05
5.7214641e-16
7.6099159e-05
1.6604043e-15
7.6099159e-05
2.1348937e-15
7.6099159e-05
2.158393e-15
7.6099159e-05
1.7678635e-15
7.6099159e-05
1.9947209e-15
7.6099159e-05
2.9302197e-15
7.6099159e-05
4.1865445e-15
7.6099159e-05
4.5216684e-15
7.6099159e-05
4.1873997e-15
7.6099159e-05
2.9250428e-15
7.6099159e-05
1.809488e-15
7.6099159e-05
2.3019647e-16
7.6099159e-05
-1.5090915e-15
7.6099159e-05
-3.398069e-15
7.6099159e-05
-4.5228928e-15
7.6099159e-05
-4.1825869e-15
7.6099159e-05
-2.8030085e-15
7.6099159e-05
-8.5227425e-16
7.6099159e-05
3.9210423e-16
7.6099159e-05
8.5324483e-16
7.6099159e-05
1.1473736e-15
7.6099159e-05
1.8909546e-15
7.6099159e-05
3.2257744e-15
7.6099159e-05
4.5090721e-15
7.6099159e-05
4.9099589e-15
7.6099159e-05
4.0128143e-15
7.6099159e-05
2.4089104e-15
7.6099159e-05
6.4048042e-16
7.6099159e-05
-6.2442002e-16
7.6099159e-05
-1.4952079e-15
7.6099159e-05
-1.993726e-15
7.6099159e-05
-2.3339772e-15
7.6099159e-05
-2.5271453e-15
7.6099159e-05
-2.7660934e-15
7.6099159e-05
-2.8816583e-15
7.6099159e-05
-2.6855975e-15
7.6099159e-05
-2.1417954e-15
7.6099159e-05
-1.7494822e-15
7.6099159e-05
-2.0779817e-15
7.6099159e-05
-3.2379259e-15
7.6099159e-05
-4.3802673e-15
7.6099159e-05
-4.6317739e-15
7.6099159e-05
-3.6907087e-15
7.6099159e-05
-2.2190169e-15
7.6099159e-05
-1.1066667e-15
7.6099159e-05
-1.9514653e-16
7.6099159e-05
8.8634681e-16
7.6099159e-05
2.5561072e-15
7.6099159e-05
4.0849456e-15
7.6099159e-05
4.6615759e-15
7.6099159e-05
4.0691326e-15
7.6099159e-05
2.4106527e-15
7.6099159e-05
8.1973381e-16
7.6099159e-05
-6.037419e-16
7.6099159e-05
-1.5121024e-15
7.6099159e-05
-2.1014297e-15
7.6099159e-05
-2.419376e-15
7.6099159e-05
-2.5357641e-15
7.6099159e-05
-2.5670029e-15
7.6099159e-05
-2.5740648e-15
7.6099159e-05
-2.6229328e-15
7.6099159e-05
-2.6475767e-15
7.6099159e-05
-2.7034235e-15
7.6099159e-05
-2.6175363e-15
7.6099159e-05
-2.5215691e-15
7.6099159e-05
-2.5828986e-15
7.6099159e-05
-2.9567794e-15
7.6099159e-05
-2.9165543e-15
7.6099159e-05
-1.9708896e-15
7.6099159e-05
-1.3668382e-15
7.6099159e-05
-2.8886955e-15
7.6099159e-05
-4.9248525e-15
-3.140632e-15
0.00023312986
0.00043770623
0.00018548527
0.0001745987
0.00015018421
9.6939557e-05
0.0001310242
4.9741163e-05
0.00011965162
2.769602e-05
0.0001131446
1.591662e-05
0.00010931814
9.0864879e-06
0.00010710183
5.2976106e-06
0.0001058215
3.0015402e-06
0.00010509347
1.7127777e-06
0.00010468612
9.4305708e-07
0.00010446306
5.1624553e-07
0.00010434425
2.7032521e-07
0.00010428311
1.3820475e-07
0.00010425319
6.5921961e-08
0.00010423959
2.9239031e-08
0.0001042342
1.0754395e-08
0.00010423268
2.4048626e-09
0.00010423281
-1.0817191e-09
0.00010423352
-2.1176968e-09
0.00010423431
-2.1456165e-09
0.000104235
-1.7806229e-09
0.00010423553
-1.3488977e-09
0.00010423592
-9.6081569e-10
0.00010423618
-6.5776193e-10
0.00010423636
-4.3569305e-10
0.00010423648
-2.8148898e-10
0.00010423655
-1.7773374e-10
0.0001042366
-1.1005205e-10
0.00010423662
-6.6836185e-11
0.00010423664
-3.9861926e-11
0.00010423665
-2.3330832e-11
0.00010423666
-1.3400027e-11
0.00010423666
-7.5342368e-12
0.00010423666
-4.1347249e-12
0.00010423666
-2.2022853e-12
0.00010423666
-1.1299324e-12
0.00010423666
-5.5242168e-13
0.00010423666
-2.5131573e-13
0.00010423666
-9.9508174e-14
0.00010423666
-2.5954547e-14
0.00010423666
6.3311471e-15
0.00010423666
1.7387472e-14
0.00010423666
1.6877984e-14
0.00010423666
1.2454902e-14
0.00010423666
9.291066e-15
0.00010423666
8.5219558e-15
0.00010423666
8.5424207e-15
0.00010423666
9.3940829e-15
0.00010423666
8.3790623e-15
0.00010423666
7.3110104e-15
0.00010423666
5.5189692e-15
0.00010423666
5.0702272e-15
0.00010423666
4.9948624e-15
0.00010423666
5.3599869e-15
0.00010423666
5.405327e-15
0.00010423666
4.9331873e-15
0.00010423666
4.010869e-15
0.00010423666
4.5057875e-15
0.00010423666
3.512853e-15
0.00010423666
3.6719632e-15
0.00010423666
2.3715188e-15
0.00010423666
2.0515901e-15
0.00010423666
1.2133717e-15
0.00010423666
1.5571234e-15
0.00010423666
1.9746311e-15
0.00010423666
2.8820865e-15
0.00010423666
3.8728604e-15
0.00010423666
4.4152172e-15
0.00010423666
4.0005099e-15
0.00010423666
3.9634838e-15
0.00010423666
2.8719463e-15
0.00010423666
3.7262091e-15
0.00010423666
4.0252231e-15
0.00010423666
5.3647765e-15
0.00010423666
4.6962233e-15
0.00010423666
3.4643735e-15
0.00010423666
8.1525151e-16
0.00010423666
-9.3756123e-16
0.00010423666
-2.7931943e-15
0.00010423666
-3.2166072e-15
0.00010423666
-4.0379944e-15
0.00010423666
-3.8514241e-15
0.00010423666
-4.3941447e-15
0.00010423666
-4.0542686e-15
0.00010423666
-4.4045241e-15
0.00010423666
-3.9233558e-15
0.00010423666
-4.1191893e-15
0.00010423666
-3.5817646e-15
0.00010423666
-3.7214492e-15
0.00010423666
-3.3118009e-15
0.00010423666
-3.6633271e-15
0.00010423666
-3.412595e-15
0.00010423666
-3.7790977e-15
0.00010423666
-3.5793221e-15
0.00010423666
-4.3811919e-15
0.00010423666
-4.5425096e-15
0.00010423666
-4.9862214e-15
0.00010423666
-4.1396215e-15
0.00010423666
-4.1292317e-15
0.00010423666
-3.9832383e-15
0.00010423666
-4.7486631e-15
0.00010423666
-5.087448e-15
0.00010423666
-4.8854673e-15
0.00010423666
-2.9262188e-15
0.00010423666
-7.8127614e-16
0.00010423666
2.1099566e-15
0.00010423666
3.3045768e-15
0.00010423666
3.7886214e-15
0.00010423666
2.8854246e-15
0.00010423666
1.7741051e-15
0.00010423666
-9.8379683e-17
0.00010423666
-2.187115e-15
0.00010423666
-4.290713e-15
0.00010423666
-5.0783551e-15
0.00010423666
-4.8031012e-15
0.00010423666
-2.6834911e-15
0.00010423666
-7.944764e-16
0.00010423666
1.3538555e-15
0.00010423666
2.3690845e-15
0.00010423666
3.1781473e-15
0.00010423666
3.3093145e-15
0.00010423666
3.5817294e-15
0.00010423666
3.5411856e-15
0.00010423666