/*--------------------------------*- C++ -*----------------------------------*\
| =========                 |                                                 |
| \\      /  F ield         | OpenFOAM: The Open Source CFD Toolbox           |
|  \\    /   O peration     | Version:  2206                                  |
|   \\  /    A nd           | Website:  www.openfoam.com                      |
|    \\/     M anipulation  |                                                 |
\*---------------------------------------------------------------------------*/
FoamFile
{
    version     2.0;
    format      ascii;
    arch        "LSB;label=32;scalar=64";
    class       volVectorField;
    location    "27";
    object      U;
}
// * * * * * * * * * * * * * * * * * * * * * * * * * * * * * * * * * * * * * //

dimensions      [0 1 -1 0 0 0 0];

internalField   nonuniform List<vector> 
15000
(
(0.15962853 0.053997676 0)
(0.11557193 0.0064916404 0)
(0.06425136 0.001414423 0)
(0.055918599 0.00074960441 0)
(0.047595818 0.00028827116 0)
(0.0447088 0.00019884399 0)
(0.042412495 9.0521792e-05 0)
(0.041406637 6.0128299e-05 0)
(0.040707475 2.8981366e-05 0)
(0.040376989 1.8023081e-05 0)
(0.040167797 8.6660722e-06 0)
(0.040068659 4.9992109e-06 0)
(0.040011054 2.2700333e-06 0)
(0.039985308 1.1751377e-06 0)
(0.039971973 4.4718384e-07 0)
(0.039967049 1.7390605e-07 0)
(0.03996518 1.3869979e-08 0)
(0.039965128 -3.0502934e-08 0)
(0.039965544 -4.8967443e-08 0)
(0.039966152 -4.3482419e-08 0)
(0.03996668 -3.5913722e-08 0)
(0.039967111 -2.61348e-08 0)
(0.039967422 -1.8575534e-08 0)
(0.039967642 -1.2446799e-08 0)
(0.03996779 -8.2101075e-09 0)
(0.039967887 -5.2266692e-09 0)
(0.039967949 -3.2858593e-09 0)
(0.039967988 -2.0138434e-09 0)
(0.039968012 -1.2178921e-09 0)
(0.039968026 -7.1969679e-10 0)
(0.039968035 -4.1945074e-10 0)
(0.03996804 -2.4003537e-10 0)
(0.039968042 -1.3600926e-10 0)
(0.039968044 -7.5460596e-11 0)
(0.039968045 -4.0790512e-11 0)
(0.039968045 -2.1115019e-11 0)
(0.039968045 -1.0540356e-11 0)
(0.039968046 -5.0736707e-12 0)
(0.039968046 -2.3649597e-12 0)
(0.039968046 -8.9459999e-13 0)
(0.039968046 -4.9521668e-14 0)
(0.039968046 4.5603984e-13 0)
(0.039968046 6.3403795e-13 0)
(0.039968046 5.3817183e-13 0)
(0.039968046 2.104123e-13 0)
(0.039968046 5.4167915e-14 0)
(0.039968046 1.813387e-13 0)
(0.039968046 5.1578131e-13 0)
(0.039968046 7.5577604e-13 0)
(0.039968046 8.6491977e-13 0)
(0.039968046 7.6349489e-13 0)
(0.039968046 6.2130905e-13 0)
(0.039968046 4.6739258e-13 0)
(0.039968046 4.040729e-13 0)
(0.039968046 3.5180436e-13 0)
(0.039968046 3.5586728e-13 0)
(0.039968046 2.768893e-13 0)
(0.039968046 2.4229307e-13 0)
(0.039968046 2.229494e-13 0)
(0.039968046 2.7176269e-13 0)
(0.039968046 2.4099519e-13 0)
(0.039968046 1.6662169e-13 0)
(0.039968046 4.3520629e-14 0)
(0.039968046 -2.8315119e-14 0)
(0.039968046 -8.0479957e-14 0)
(0.039968046 -4.2582265e-14 0)
(0.039968046 1.1192894e-14 0)
(0.039968046 1.4731198e-13 0)
(0.039968046 2.1364108e-13 0)
(0.039968046 2.659882e-13 0)
(0.039968046 1.4619282e-13 0)
(0.039968046 9.9355669e-14 0)
(0.039968046 5.3441683e-14 0)
(0.039968046 2.1894862e-13 0)
(0.039968046 3.8078009e-13 0)
(0.039968046 5.7682066e-13 0)
(0.039968046 5.0176662e-13 0)
(0.039968046 3.9217195e-13 0)
(0.039968046 1.4160221e-13 0)
(0.039968046 -2.1965832e-15 0)
(0.039968046 -1.6198462e-13 0)
(0.039968046 -2.1116238e-13 0)
(0.039968046 -3.0363149e-13 0)
(0.039968046 -3.0252549e-13 0)
(0.039968046 -3.5179598e-13 0)
(0.039968046 -3.200054e-13 0)
(0.039968046 -3.4476556e-13 0)
(0.039968046 -3.0645945e-13 0)
(0.039968046 -3.2170723e-13 0)
(0.039968046 -2.8414437e-13 0)
(0.039968046 -2.9873812e-13 0)
(0.039968046 -2.8730313e-13 0)
(0.039968046 -3.1012277e-13 0)
(0.039968046 -2.9453403e-13 0)
(0.039968046 -2.8699857e-13 0)
(0.039968046 -3.0375379e-13 0)
(0.039968046 -3.5389567e-13 0)
(0.039968046 -3.7936425e-13 0)
(0.039968046 -3.1347401e-13 0)
(0.039968046 -2.1955009e-13 0)
(0.039968046 -1.7481249e-13 0)
(0.039968046 -2.5106349e-13 0)
(0.039968046 -4.052056e-13 0)
(0.039968046 -5.7730957e-13 0)
(0.039968046 -5.9603295e-13 0)
(0.039968046 -4.8227914e-13 0)
(0.039968046 -1.7090447e-13 0)
(0.039968046 1.2502029e-13 0)
(0.039968046 3.6595698e-13 0)
(0.039968046 4.7695567e-13 0)
(0.039968046 5.0970916e-13 0)
(0.039968046 3.8161997e-13 0)
(0.039968046 1.3715254e-13 0)
(0.039968046 -2.0064283e-13 0)
(0.039968046 -4.4706457e-13 0)
(0.039968046 -5.9253238e-13 0)
(0.039968046 -4.983845e-13 0)
(0.039968046 -3.2704431e-13 0)
(0.039968046 -9.2844122e-14 0)
(0.039968046 4.7524084e-14 0)
(0.039968046 1.4993961e-13 0)
(0.039968046 1.8974183e-13 0)
(0.039968046 2.315609e-13 0)
(0.039968046 2.4350912e-13 0)
(0.039968046 2.6614405e-13 0)
(0.039968046 2.6061414e-13 0)
(0.039968046 2.6488997e-13 0)
(0.039968046 2.5304264e-13 0)
(0.039968046 2.5548619e-13 0)
(0.039968046 2.535218e-13 0)
(0.039968046 2.6118506e-13 0)
(0.039968046 2.6669562e-13 0)
(0.039968046 2.7361823e-13 0)
(0.039968046 2.8030845e-13 0)
(0.039968046 2.8221999e-13 0)
(0.039968046 2.8528393e-13 0)
(0.039968046 2.8236861e-13 0)
(0.039968046 2.8310091e-13 0)
(0.039968046 2.7770875e-13 0)
(0.039968046 2.7941559e-13 0)
(0.039968046 2.7108057e-13 0)
(0.039968046 2.7150836e-13 0)
(0.039968046 2.633559e-13 0)
(0.039968046 2.711803e-13 0)
(0.039968046 2.5971011e-13 0)
(0.039968046 2.5763903e-13 0)
(0.039968046 2.3902005e-13 0)
(0.039968046 2.615736e-13 0)
(0.039968046 2.7172385e-13 0)
(0.039968046 2.8545973e-13 0)
(0.039968046 2.0939832e-13 0)
(0.039968046 1.4360683e-13 0)
(0.039968046 1.3605202e-13 0)
(0.039968046 2.5915525e-13 0)
(0.039968046 4.2354333e-13 0)
(0.039968046 5.649935e-13 0)
(0.039968046 5.2651423e-13 0)
(0.039968046 4.038021e-13 0)
(0.039968046 1.8628471e-13 0)
(0.039968046 4.8548146e-14 0)
(0.039968046 -5.9650751e-14 0)
(0.039968046 -1.1655193e-13 0)
(0.039968046 -1.7240917e-13 0)
(0.039968046 -1.9544821e-13 0)
(0.039968046 -2.3377695e-13 0)
(0.039968046 -2.3713879e-13 0)
(0.039968046 -2.4209836e-13 0)
(0.039968046 -2.3476539e-13 0)
(0.039968046 -2.3809375e-13 0)
(0.039968046 -2.3212821e-13 0)
(0.039968046 -2.373298e-13 0)
(0.039968046 -2.3157971e-13 0)
(0.039968046 -2.3479824e-13 0)
(0.039968046 -2.2563955e-13 0)
(0.039968046 -2.2818013e-13 0)
(0.039968046 -2.1901688e-13 0)
(0.039968046 -2.2643756e-13 0)
(0.039968046 -2.1832546e-13 0)
(0.039968046 -2.2477045e-13 0)
(0.039968046 -2.1871199e-13 0)
(0.039968046 -2.2448112e-13 0)
(0.039968046 -2.2617584e-13 0)
(0.039968046 -2.2271733e-13 0)
(0.039968046 -2.1809138e-13 0)
(0.039968046 -2.1436465e-13 0)
(0.039968046 -2.2213832e-13 0)
(0.039968046 -2.2620773e-13 0)
(0.039968046 -2.3147253e-13 0)
(0.039968046 -2.1831838e-13 0)
(0.039968046 -2.0987398e-13 0)
(0.039968046 -2.000076e-13 0)
(0.039968046 -2.2048973e-13 0)
(0.039968046 -2.2619515e-13 0)
(0.039968046 -2.0376552e-13 0)
(0.039968046 -1.2390933e-13 0)
(0.039968046 -8.923268e-14 0)
(0.039968046 -1.4139384e-13 0)
(0.039968046 -3.1621576e-13 0)
(0.039968046 -4.7707567e-13 0)
(0.039968046 -5.8860521e-13 0)
(0.039968046 -5.1042033e-13 0)
(0.039968046 -3.4246547e-13 0)
(0.039968046 -1.3555198e-13 0)
(0.039968046 -5.5273411e-14 0)
(0.039968046 -8.7635319e-15 0)
(0.039968046 1.6360299e-14 0)
(0.039968046 1.6600724e-13 0)
(0.039968046 3.3177923e-13 0)
(0.039968046 5.1327467e-13 0)
(0.039968046 5.3390712e-13 0)
(0.039968046 4.4982892e-13 0)
(0.039968046 2.6885558e-13 0)
(0.039968046 1.0747054e-13 0)
(0.039968046 -2.6434497e-14 0)
(0.039968046 -1.3420282e-13 0)
(0.039968046 -2.2279635e-13 0)
(0.039968046 -2.4975009e-13 0)
(0.039968046 -2.1093022e-13 0)
(0.039968046 -1.5343265e-13 0)
(0.039968046 -1.7619786e-13 0)
(0.039968046 -3.1311443e-13 0)
(0.039968046 -4.9581959e-13 0)
(0.039968046 -6.1551624e-13 0)
(0.039968046 -5.8692798e-13 0)
(0.039968046 -4.3124732e-13 0)
(0.039968046 -2.3760426e-13 0)
(0.039968046 -5.4260994e-14 0)
(0.039968046 9.7371675e-14 0)
(0.039968046 1.7200964e-13 0)
(0.039968046 1.8027791e-13 0)
(0.039968046 1.1928413e-13 0)
(0.039968046 1.2993023e-13 0)
(0.039968046 2.4176467e-13 0)
(0.039968046 4.3639961e-13 0)
(0.039968046 5.3625099e-13 0)
(0.039968046 5.5798237e-13 0)
(0.039968046 4.5376186e-13 0)
(0.039968046 3.45031e-13 0)
(0.039968046 1.6934335e-13 0)
(0.039968046 -6.2535947e-14 0)
(0.039968046 -3.3212284e-13 0)
(0.039968046 -5.4319146e-13 0)
(0.039968046 -5.6836139e-13 0)
(0.039968046 -4.4488548e-13 0)
(0.039968046 -2.1873456e-13 0)
(0.039968046 -5.9973532e-14 0)
(0.039968046 -1.8869868e-15 0)
(0.039968046 2.8985984e-14 0)
(0.039968046 1.1553306e-13 0)
(0.039968046 2.9642921e-13 0)
(0.039968046 4.9376104e-13 0)
(0.039968046 6.0693769e-13 0)
(0.039968046 5.5842033e-13 0)
(0.039968046 3.9776603e-13 0)
(0.039968046 1.9240777e-13 0)
(0.039968046 3.6412955e-14 0)
(0.039968046 -8.0466255e-14 0)
(0.039968046 -1.4942047e-13 0)
(0.039968046 -1.9668323e-13 0)
(0.039968046 -2.1835104e-13 0)
(0.039968046 -2.4950951e-13 0)
(0.039968046 -2.6531598e-13 0)
(0.039968046 -2.474708e-13 0)
(0.039968046 -1.747107e-13 0)
(0.039968046 -1.1319055e-13 0)
(0.039968046 -1.3829362e-13 0)
(0.039968046 -2.960436e-13 0)
(0.039968046 -4.7889718e-13 0)
(0.039968046 -5.7504963e-13 0)
(0.039968046 -5.1715036e-13 0)
(0.039968046 -3.6856425e-13 0)
(0.039968046 -2.5006654e-13 0)
(0.039968046 -1.5134235e-13 0)
(0.039968046 -2.1682109e-14 0)
(0.039968046 2.0196788e-13 0)
(0.039968046 4.3749909e-13 0)
(0.039968046 5.6952925e-13 0)
(0.039968046 5.605305e-13 0)
(0.039968046 3.9756865e-13 0)
(0.039968046 2.1294635e-13 0)
(0.039968046 4.0212655e-14 0)
(0.039968046 -8.36422e-14 0)
(0.039968046 -1.6524773e-13 0)
(0.039968046 -2.1241434e-13 0)
(0.039968046 -2.2589947e-13 0)
(0.039968046 -2.2595635e-13 0)
(0.039968046 -2.2180167e-13 0)
(0.039968046 -2.283345e-13 0)
(0.039968046 -2.2995856e-13 0)
(0.039968046 -2.4168871e-13 0)
(0.039968046 -2.313707e-13 0)
(0.039968046 -2.2010452e-13 0)
(0.039968046 -2.2321586e-13 0)
(0.039968046 -2.7625364e-13 0)
(0.039968046 -2.8132709e-13 0)
(0.039968046 -1.5971494e-13 0)
(0.039968046 -5.3484595e-14 0)
(0.039968046 -2.3878044e-13 0)
(0.039968046 -5.4544347e-13 0)
(0.039968046 -3.8503056e-13 0)
(0.36732383 0.14062829 0)
(0.29754389 0.025079382 0)
(0.1860793 0.008369471 0)
(0.16132807 0.0041218878 0)
(0.13901859 0.0019375886 0)
(0.13040448 0.0011770252 0)
(0.12396461 0.00061112595 0)
(0.12095998 0.00037191747 0)
(0.1189454 0.00019726866 0)
(0.11794826 0.0001156486 0)
(0.11733081 6.0270205e-05 0)
(0.11702581 3.3425614e-05 0)
(0.11685066 1.6519196e-05 0)
(0.11676842 8.3971332e-06 0)
(0.1167257 3.6649987e-06 0)
(0.11670834 1.5208902e-06 0)
(0.1167012 3.9865466e-07 0)
(0.11669986 -2.911277e-08 0)
(0.1167004 -1.999812e-07 0)
(0.11670175 -2.1662561e-07 0)
(0.11670304 -1.9082106e-07 0)
(0.11670415 -1.4631021e-07 0)
(0.11670497 -1.0649587e-07 0)
(0.11670557 -7.329588e-08 0)
(0.11670597 -4.9091082e-08 0)
(0.11670624 -3.1829136e-08 0)
(0.11670642 -2.0249877e-08 0)
(0.11670653 -1.2586133e-08 0)
(0.11670659 -7.6932732e-09 0)
(0.11670664 -4.606654e-09 0)
(0.11670666 -2.7137659e-09 0)
(0.11670667 -1.5695998e-09 0)
(0.11670668 -8.9387243e-10 0)
(0.11670669 -4.9826612e-10 0)
(0.11670669 -2.706552e-10 0)
(0.11670669 -1.4189233e-10 0)
(0.11670669 -7.1501427e-11 0)
(0.11670669 -3.4416786e-11 0)
(0.11670669 -1.5453591e-11 0)
(0.11670669 -5.7784308e-12 0)
(0.11670669 -8.2862649e-13 0)
(0.11670669 1.5738068e-12 0)
(0.11670669 2.4945569e-12 0)
(0.11670669 2.2071389e-12 0)
(0.11670669 1.1863397e-12 0)
(0.11670669 5.5162714e-13 0)
(0.11670669 8.081877e-13 0)
(0.11670669 1.6021861e-12 0)
(0.11670669 2.3748761e-12 0)
(0.11670669 2.5354405e-12 0)
(0.11670669 2.3182852e-12 0)
(0.11670669 1.8225038e-12 0)
(0.11670669 1.4542398e-12 0)
(0.11670669 1.230464e-12 0)
(0.11670669 1.1217209e-12 0)
(0.11670669 1.076648e-12 0)
(0.11670669 8.5305557e-13 0)
(0.11670669 5.8761021e-13 0)
(0.11670669 7.181214e-13 0)
(0.11670669 6.8804652e-13 0)
(0.11670669 7.6899863e-13 0)
(0.11670669 4.2940816e-13 0)
(0.11670669 1.8997069e-13 0)
(0.11670669 -9.0548619e-14 0)
(0.11670669 -1.3009448e-13 0)
(0.11670669 -5.3082978e-14 0)
(0.11670669 1.4381499e-13 0)
(0.11670669 4.8629241e-13 0)
(0.11670669 7.0772685e-13 0)
(0.11670669 7.0995185e-13 0)
(0.11670669 5.4438237e-13 0)
(0.11670669 1.8782189e-13 0)
(0.11670669 2.3654579e-13 0)
(0.11670669 5.2161562e-13 0)
(0.11670669 1.1922821e-12 0)
(0.11670669 1.5862661e-12 0)
(0.11670669 1.5482876e-12 0)
(0.11670669 1.0721129e-12 0)
(0.11670669 4.9457612e-13 0)
(0.11670669 -7.0994796e-14 0)
(0.11670669 -3.818748e-13 0)
(0.11670669 -6.7832067e-13 0)
(0.11670669 -7.9963757e-13 0)
(0.11670669 -9.4706524e-13 0)
(0.11670669 -9.4848399e-13 0)
(0.11670669 -9.9402788e-13 0)
(0.11670669 -9.3467357e-13 0)
(0.11670669 -9.4862174e-13 0)
(0.11670669 -8.7560886e-13 0)
(0.11670669 -8.7674447e-13 0)
(0.11670669 -8.148366e-13 0)
(0.11670669 -8.7665241e-13 0)
(0.11670669 -8.582904e-13 0)
(0.11670669 -9.0007088e-13 0)
(0.11670669 -8.0119295e-13 0)
(0.11670669 -9.174369e-13 0)
(0.11670669 -1.0033442e-12 0)
(0.11670669 -1.1453514e-12 0)
(0.11670669 -8.976526e-13 0)
(0.11670669 -6.858349e-13 0)
(0.11670669 -5.0491457e-13 0)
(0.11670669 -7.3927401e-13 0)
(0.11670669 -1.1671237e-12 0)
(0.11670669 -1.666894e-12 0)
(0.11670669 -1.7212926e-12 0)
(0.11670669 -1.4276781e-12 0)
(0.11670669 -5.1101598e-13 0)
(0.11670669 3.2051216e-13 0)
(0.11670669 1.0575693e-12 0)
(0.11670669 1.3795537e-12 0)
(0.11670669 1.4859023e-12 0)
(0.11670669 1.1398116e-12 0)
(0.11670669 4.451419e-13 0)
(0.11670669 -5.3184128e-13 0)
(0.11670669 -1.2820101e-12 0)
(0.11670669 -1.7083411e-12 0)
(0.11670669 -1.441957e-12 0)
(0.11670669 -9.5661483e-13 0)
(0.11670669 -2.6899557e-13 0)
(0.11670669 1.295835e-13 0)
(0.11670669 4.3201786e-13 0)
(0.11670669 5.4372566e-13 0)
(0.11670669 6.6856066e-13 0)
(0.11670669 7.041154e-13 0)
(0.11670669 7.7206046e-13 0)
(0.11670669 7.5717464e-13 0)
(0.11670669 7.6993883e-13 0)
(0.11670669 7.3510736e-13 0)
(0.11670669 7.4316301e-13 0)
(0.11670669 7.3565027e-13 0)
(0.11670669 7.6047126e-13 0)
(0.11670669 7.7499877e-13 0)
(0.11670669 7.9767216e-13 0)
(0.11670669 8.1529273e-13 0)
(0.11670669 8.2328242e-13 0)
(0.11670669 8.2997879e-13 0)
(0.11670669 8.2356299e-13 0)
(0.11670669 8.2252395e-13 0)
(0.11670669 8.1073572e-13 0)
(0.11670669 8.1177253e-13 0)
(0.11670669 7.9185274e-13 0)
(0.11670669 7.879409e-13 0)
(0.11670669 7.6818064e-13 0)
(0.11670669 7.8589191e-13 0)
(0.11670669 7.5927211e-13 0)
(0.11670669 7.4907756e-13 0)
(0.11670669 6.9967942e-13 0)
(0.11670669 7.5558677e-13 0)
(0.11670669 7.9630155e-13 0)
(0.11670669 8.2831911e-13 0)
(0.11670669 6.1803483e-13 0)
(0.11670669 4.1861653e-13 0)
(0.11670669 3.9314753e-13 0)
(0.11670669 7.2938594e-13 0)
(0.11670669 1.2294882e-12 0)
(0.11670669 1.6243711e-12 0)
(0.11670669 1.5340675e-12 0)
(0.11670669 1.1771908e-12 0)
(0.11670669 5.4809553e-13 0)
(0.11670669 1.4956833e-13 0)
(0.11670669 -1.6537484e-13 0)
(0.11670669 -3.3566919e-13 0)
(0.11670669 -4.9945363e-13 0)
(0.11670669 -5.7086703e-13 0)
(0.11670669 -6.8118331e-13 0)
(0.11670669 -6.8414529e-13 0)
(0.11670669 -7.0056813e-13 0)
(0.11670669 -6.7593997e-13 0)
(0.11670669 -6.8838564e-13 0)
(0.11670669 -6.6867166e-13 0)
(0.11670669 -6.8661699e-13 0)
(0.11670669 -6.6765271e-13 0)
(0.11670669 -6.8015951e-13 0)
(0.11670669 -6.5159238e-13 0)
(0.11670669 -6.6054639e-13 0)
(0.11670669 -6.329133e-13 0)
(0.11670669 -6.5410435e-13 0)
(0.11670669 -6.334073e-13 0)
(0.11670669 -6.5035738e-13 0)
(0.11670669 -6.3652055e-13 0)
(0.11670669 -6.5241505e-13 0)
(0.11670669 -6.5842434e-13 0)
(0.11670669 -6.5218237e-13 0)
(0.11670669 -6.3558251e-13 0)
(0.11670669 -6.3089364e-13 0)
(0.11670669 -6.4604489e-13 0)
(0.11670669 -6.6750659e-13 0)
(0.11670669 -6.748132e-13 0)
(0.11670669 -6.4723412e-13 0)
(0.11670669 -6.1567193e-13 0)
(0.11670669 -5.9479388e-13 0)
(0.11670669 -6.4840816e-13 0)
(0.11670669 -6.7526912e-13 0)
(0.11670669 -6.1461589e-13 0)
(0.11670669 -3.8537446e-13 0)
(0.11670669 -2.7466258e-13 0)
(0.11670669 -4.2704793e-13 0)
(0.11670669 -9.1521831e-13 0)
(0.11670669 -1.391298e-12 0)
(0.11670669 -1.7089708e-12 0)
(0.11670669 -1.4853079e-12 0)
(0.11670669 -9.9466214e-13 0)
(0.11670669 -3.9198196e-13 0)
(0.11670669 -1.4531032e-13 0)
(0.11670669 -2.0150407e-14 0)
(0.11670669 5.8996719e-14 0)
(0.11670669 4.7308356e-13 0)
(0.11670669 9.7190175e-13 0)
(0.11670669 1.4867963e-12 0)
(0.11670669 1.5689943e-12 0)
(0.11670669 1.3209439e-12 0)
(0.11670669 7.9716489e-13 0)
(0.11670669 3.3437054e-13 0)
(0.11670669 -5.8630163e-14 0)
(0.11670669 -3.6567649e-13 0)
(0.11670669 -6.3380366e-13 0)
(0.11670669 -7.1607724e-13 0)
(0.11670669 -6.075003e-13 0)
(0.11670669 -4.2818524e-13 0)
(0.11670669 -4.8576271e-13 0)
(0.11670669 -8.6613337e-13 0)
(0.11670669 -1.3973218e-12 0)
(0.11670669 -1.7548367e-12 0)
(0.11670669 -1.6729789e-12 0)
(0.11670669 -1.2294056e-12 0)
(0.11670669 -6.8100849e-13 0)
(0.11670669 -1.5256378e-13 0)
(0.11670669 2.7593804e-13 0)
(0.11670669 5.0379576e-13 0)
(0.11670669 5.2889634e-13 0)
(0.11670669 3.5162641e-13 0)
(0.11670669 3.6208478e-13 0)
(0.11670669 6.9730004e-13 0)
(0.11670669 1.2343314e-12 0)
(0.11670669 1.5572096e-12 0)
(0.11670669 1.604402e-12 0)
(0.11670669 1.3053126e-12 0)
(0.11670669 1.0039111e-12 0)
(0.11670669 4.9882893e-13 0)
(0.11670669 -1.4411295e-13 0)
(0.11670669 -9.5495543e-13 0)
(0.11670669 -1.5520783e-12 0)
(0.11670669 -1.6510226e-12 0)
(0.11670669 -1.2967065e-12 0)
(0.11670669 -6.3960459e-13 0)
(0.11670669 -1.8492763e-13 0)
(0.11670669 -9.1720141e-15 0)
(0.11670669 7.2146431e-14 0)
(0.11670669 3.1536986e-13 0)
(0.11670669 8.2635269e-13 0)
(0.11670669 1.4122967e-12 0)
(0.11670669 1.7408772e-12 0)
(0.11670669 1.6075983e-12 0)
(0.11670669 1.1483426e-12 0)
(0.11670669 5.6058114e-13 0)
(0.11670669 1.0923196e-13 0)
(0.11670669 -2.2580691e-13 0)
(0.11670669 -4.3275141e-13 0)
(0.11670669 -5.6571934e-13 0)
(0.11670669 -6.3500466e-13 0)
(0.11670669 -7.1389498e-13 0)
(0.11670669 -7.7073582e-13 0)
(0.11670669 -7.1868384e-13 0)
(0.11670669 -5.1499349e-13 0)
(0.11670669 -3.1822896e-13 0)
(0.11670669 -3.9265526e-13 0)
(0.11670669 -8.3077353e-13 0)
(0.11670669 -1.3759654e-12 0)
(0.11670669 -1.657762e-12 0)
(0.11670669 -1.4901786e-12 0)
(0.11670669 -1.0634116e-12 0)
(0.11670669 -7.1647215e-13 0)
(0.11670669 -4.5156084e-13 0)
(0.11670669 -8.7079551e-14 0)
(0.11670669 5.6143048e-13 0)
(0.11670669 1.241766e-12 0)
(0.11670669 1.6538064e-12 0)
(0.11670669 1.622092e-12 0)
(0.11670669 1.1541491e-12 0)
(0.11670669 6.3060762e-13 0)
(0.11670669 1.2136031e-13 0)
(0.11670669 -2.2839281e-13 0)
(0.11670669 -4.7651197e-13 0)
(0.11670669 -6.094323e-13 0)
(0.11670669 -6.5496721e-13 0)
(0.11670669 -6.5664834e-13 0)
(0.11670669 -6.4893591e-13 0)
(0.11670669 -6.5591072e-13 0)
(0.11670669 -6.6968993e-13 0)
(0.11670669 -6.9324967e-13 0)
(0.11670669 -6.7489136e-13 0)
(0.11670669 -6.3257743e-13 0)
(0.11670669 -6.435989e-13 0)
(0.11670669 -7.8602756e-13 0)
(0.11670669 -8.2573125e-13 0)
(0.11670669 -4.8022032e-13 0)
(0.11670669 -1.4132144e-13 0)
(0.11670669 -6.3281411e-13 0)
(0.11670669 -1.5796867e-12 0)
(0.11670669 -1.1719489e-12 0)
(0.50390834 0.19019021 0)
(0.43847039 0.050431503 0)
(0.29767008 0.022055326 0)
(0.25944374 0.010780116 0)
(0.22598939 0.0055621504 0)
(0.21213187 0.0032308013 0)
(0.20205719 0.0017732862 0)
(0.19716897 0.0010457346 0)
(0.19394744 0.0005767955 0)
(0.19230772 0.00033134004 0)
(0.19130242 0.00017833932 0)
(0.19079327 9.7737221e-05 0)
(0.19050201 4.9931316e-05 0)
(0.1903612 2.5331496e-05 0)
(0.19028763 1.1621922e-05 0)
(0.19025609 4.9687835e-06 0)
(0.1902425 1.5953259e-06 0)
(0.19023894 1.7213807e-07 0)
(0.19023899 -4.0101694e-07 0)
(0.19024063 -5.2342831e-07 0)
(0.19024241 -4.8557958e-07 0)
(0.19024402 -3.8520833e-07 0)
(0.19024524 -2.8499771e-07 0)
(0.19024615 -1.9925408e-07 0)
(0.19024677 -1.3472538e-07 0)
(0.19024719 -8.8236424e-08 0)
(0.19024746 -5.652395e-08 0)
(0.19024763 -3.5394893e-08 0)
(0.19024774 -2.1762685e-08 0)
(0.1902478 -1.3119805e-08 0)
(0.19024784 -7.7730002e-09 0)
(0.19024787 -4.5201153e-09 0)
(0.19024788 -2.5822223e-09 0)
(0.19024789 -1.4436483e-09 0)
(0.19024789 -7.8696091e-10 0)
(0.19024789 -4.1523122e-10 0)
(0.1902479 -2.1067605e-10 0)
(0.1902479 -1.0170753e-10 0)
(0.1902479 -4.5501051e-11 0)
(0.1902479 -1.7213912e-11 0)
(0.1902479 -3.3882596e-12 0)
(0.1902479 2.8257765e-12 0)
(0.1902479 4.991956e-12 0)
(0.1902479 4.5697508e-12 0)
(0.1902479 2.9082802e-12 0)
(0.1902479 1.775506e-12 0)
(0.1902479 1.9038199e-12 0)
(0.1902479 2.7486609e-12 0)
(0.1902479 3.680591e-12 0)
(0.1902479 3.7371255e-12 0)
(0.1902479 3.3656535e-12 0)
(0.1902479 2.6145071e-12 0)
(0.1902479 2.1462026e-12 0)
(0.1902479 1.8779588e-12 0)
(0.1902479 1.7938917e-12 0)
(0.1902479 1.7469249e-12 0)
(0.1902479 1.4558624e-12 0)
(0.1902479 1.0528463e-12 0)
(0.1902479 1.2512652e-12 0)
(0.1902479 1.1137046e-12 0)
(0.1902479 1.2295688e-12 0)
(0.1902479 7.0782871e-13 0)
(0.1902479 4.0679357e-13 0)
(0.1902479 3.6578362e-15 0)
(0.1902479 -1.1111652e-15 0)
(0.1902479 1.2666526e-13 0)
(0.1902479 4.4511416e-13 0)
(0.1902479 9.2707503e-13 0)
(0.1902479 1.2417178e-12 0)
(0.1902479 1.1947371e-12 0)
(0.1902479 1.0124455e-12 0)
(0.1902479 4.8526105e-13 0)
(0.1902479 6.2589824e-13 0)
(0.1902479 9.6337019e-13 0)
(0.1902479 1.8736659e-12 0)
(0.1902479 2.2463075e-12 0)
(0.1902479 2.0982265e-12 0)
(0.1902479 1.299826e-12 0)
(0.1902479 4.7678729e-13 0)
(0.1902479 -3.492655e-13 0)
(0.1902479 -7.3751665e-13 0)
(0.1902479 -1.1650929e-12 0)
(0.1902479 -1.2784512e-12 0)
(0.1902479 -1.5095817e-12 0)
(0.1902479 -1.4702334e-12 0)
(0.1902479 -1.5647977e-12 0)
(0.1902479 -1.4416543e-12 0)
(0.1902479 -1.4855339e-12 0)
(0.1902479 -1.3425197e-12 0)
(0.1902479 -1.3656715e-12 0)
(0.1902479 -1.2487048e-12 0)
(0.1902479 -1.3599893e-12 0)
(0.1902479 -1.3098912e-12 0)
(0.1902479 -1.4009143e-12 0)
(0.1902479 -1.2651739e-12 0)
(0.1902479 -1.475991e-12 0)
(0.1902479 -1.5855892e-12 0)
(0.1902479 -1.7943948e-12 0)
(0.1902479 -1.4332849e-12 0)
(0.1902479 -1.1899245e-12 0)
(0.1902479 -9.6489871e-13 0)
(0.1902479 -1.298209e-12 0)
(0.1902479 -1.8151242e-12 0)
(0.1902479 -2.3619156e-12 0)
(0.1902479 -2.2462832e-12 0)
(0.1902479 -1.7150785e-12 0)
(0.1902479 -4.1123859e-13 0)
(0.1902479 6.5227213e-13 0)
(0.1902479 1.5423004e-12 0)
(0.1902479 1.8350596e-12 0)
(0.1902479 1.8573212e-12 0)
(0.1902479 1.3030486e-12 0)
(0.1902479 3.2232925e-13 0)
(0.1902479 -9.8774882e-13 0)
(0.1902479 -1.933494e-12 0)
(0.1902479 -2.3962697e-12 0)
(0.1902479 -1.89947e-12 0)
(0.1902479 -1.1670476e-12 0)
(0.1902479 -1.84276e-13 0)
(0.1902479 3.7047883e-13 0)
(0.1902479 7.905188e-13 0)
(0.1902479 9.3390948e-13 0)
(0.1902479 1.1018266e-12 0)
(0.1902479 1.1419718e-12 0)
(0.1902479 1.2388689e-12 0)
(0.1902479 1.2188373e-12 0)
(0.1902479 1.2451368e-12 0)
(0.1902479 1.197629e-12 0)
(0.1902479 1.2131967e-12 0)
(0.1902479 1.2000979e-12 0)
(0.1902479 1.2365038e-12 0)
(0.1902479 1.253744e-12 0)
(0.1902479 1.2869965e-12 0)
(0.1902479 1.3086103e-12 0)
(0.1902479 1.321417e-12 0)
(0.1902479 1.3285853e-12 0)
(0.1902479 1.3207814e-12 0)
(0.1902479 1.3179895e-12 0)
(0.1902479 1.303209e-12 0)
(0.1902479 1.3024188e-12 0)
(0.1902479 1.2754524e-12 0)
(0.1902479 1.268502e-12 0)
(0.1902479 1.2432666e-12 0)
(0.1902479 1.2667323e-12 0)
(0.1902479 1.2324343e-12 0)
(0.1902479 1.2218768e-12 0)
(0.1902479 1.1644603e-12 0)
(0.1902479 1.2476564e-12 0)
(0.1902479 1.3022942e-12 0)
(0.1902479 1.3323582e-12 0)
(0.1902479 1.0397073e-12 0)
(0.1902479 7.8748629e-13 0)
(0.1902479 7.8582243e-13 0)
(0.1902479 1.2431887e-12 0)
(0.1902479 1.8712107e-12 0)
(0.1902479 2.2920286e-12 0)
(0.1902479 2.0265425e-12 0)
(0.1902479 1.4402584e-12 0)
(0.1902479 5.2896139e-13 0)
(0.1902479 -2.1961028e-14 0)
(0.1902479 -4.442862e-13 0)
(0.1902479 -6.6274589e-13 0)
(0.1902479 -8.8032054e-13 0)
(0.1902479 -9.6925982e-13 0)
(0.1902479 -1.1220981e-12 0)
(0.1902479 -1.1244546e-12 0)
(0.1902479 -1.1522094e-12 0)
(0.1902479 -1.1161051e-12 0)
(0.1902479 -1.136039e-12 0)
(0.1902479 -1.1053969e-12 0)
(0.1902479 -1.133033e-12 0)
(0.1902479 -1.1045817e-12 0)
(0.1902479 -1.1251636e-12 0)
(0.1902479 -1.0836935e-12 0)
(0.1902479 -1.0999118e-12 0)
(0.1902479 -1.0600446e-12 0)
(0.1902479 -1.093332e-12 0)
(0.1902479 -1.063821e-12 0)
(0.1902479 -1.0905612e-12 0)
(0.1902479 -1.0725638e-12 0)
(0.1902479 -1.098355e-12 0)
(0.1902479 -1.1063229e-12 0)
(0.1902479 -1.1002969e-12 0)
(0.1902479 -1.0772384e-12 0)
(0.1902479 -1.0783455e-12 0)
(0.1902479 -1.0982919e-12 0)
(0.1902479 -1.1329678e-12 0)
(0.1902479 -1.1399509e-12 0)
(0.1902479 -1.106688e-12 0)
(0.1902479 -1.0642503e-12 0)
(0.1902479 -1.0460106e-12 0)
(0.1902479 -1.1192131e-12 0)
(0.1902479 -1.1496331e-12 0)
(0.1902479 -1.0570105e-12 0)
(0.1902479 -7.5379198e-13 0)
(0.1902479 -6.3358568e-13 0)
(0.1902479 -8.6793701e-13 0)
(0.1902479 -1.5078588e-12 0)
(0.1902479 -2.0656827e-12 0)
(0.1902479 -2.3643765e-12 0)
(0.1902479 -1.9094183e-12 0)
(0.1902479 -1.1637252e-12 0)
(0.1902479 -3.117001e-13 0)
(0.1902479 2.6334927e-14 0)
(0.1902479 2.0546914e-13 0)
(0.1902479 3.3659646e-13 0)
(0.1902479 9.1326736e-13 0)
(0.1902479 1.561695e-12 0)
(0.1902479 2.1670837e-12 0)
(0.1902479 2.1499163e-12 0)
(0.1902479 1.6853326e-12 0)
(0.1902479 8.9508479e-13 0)
(0.1902479 2.3118705e-13 0)
(0.1902479 -3.1613854e-13 0)
(0.1902479 -7.2539111e-13 0)
(0.1902479 -1.0717684e-12 0)
(0.1902479 -1.159806e-12 0)
(0.1902479 -1.0072126e-12 0)
(0.1902479 -7.8553279e-13 0)
(0.1902479 -8.9826124e-13 0)
(0.1902479 -1.4135898e-12 0)
(0.1902479 -2.0751572e-12 0)
(0.1902479 -2.4417703e-12 0)
(0.1902479 -2.1964652e-12 0)
(0.1902479 -1.489875e-12 0)
(0.1902479 -6.9614025e-13 0)
(0.1902479 3.8038601e-14 0)
(0.1902479 6.0567045e-13 0)
(0.1902479 8.8953242e-13 0)
(0.1902479 9.1271908e-13 0)
(0.1902479 6.9140224e-13 0)
(0.1902479 7.4685871e-13 0)
(0.1902479 1.2231267e-12 0)
(0.1902479 1.8999826e-12 0)
(0.1902479 2.2271874e-12 0)
(0.1902479 2.1634958e-12 0)
(0.1902479 1.6374383e-12 0)
(0.1902479 1.1529615e-12 0)
(0.1902479 4.095751e-13 0)
(0.1902479 -4.630888e-13 0)
(0.1902479 -1.5194074e-12 0)
(0.1902479 -2.2095435e-12 0)
(0.1902479 -2.2042595e-12 0)
(0.1902479 -1.6089077e-12 0)
(0.1902479 -6.6129207e-13 0)
(0.1902479 -3.7076668e-14 0)
(0.1902479 2.0467309e-13 0)
(0.1902479 3.3177812e-13 0)
(0.1902479 6.8585106e-13 0)
(0.1902479 1.3729525e-12 0)
(0.1902479 2.1111702e-12 0)
(0.1902479 2.4390267e-12 0)
(0.1902479 2.1209931e-12 0)
(0.1902479 1.3988061e-12 0)
(0.1902479 5.5104365e-13 0)
(0.1902479 -7.8329277e-14 0)
(0.1902479 -5.2907205e-13 0)
(0.1902479 -8.0197594e-13 0)
(0.1902479 -9.7790047e-13 0)
(0.1902479 -1.0783086e-12 0)
(0.1902479 -1.1875797e-12 0)
(0.1902479 -1.2619857e-12 0)
(0.1902479 -1.1761537e-12 0)
(0.1902479 -9.0109293e-13 0)
(0.1902479 -6.566295e-13 0)
(0.1902479 -7.9311954e-13 0)
(0.1902479 -1.3822783e-12 0)
(0.1902479 -2.0576159e-12 0)
(0.1902479 -2.3168576e-12 0)
(0.1902479 -1.9599646e-12 0)
(0.1902479 -1.2931529e-12 0)
(0.1902479 -7.7092803e-13 0)
(0.1902479 -3.7027929e-13 0)
(0.1902479 1.4985134e-13 0)
(0.1902479 1.0238416e-12 0)
(0.1902479 1.8816359e-12 0)
(0.1902479 2.328011e-12 0)
(0.1902479 2.1500516e-12 0)
(0.1902479 1.4076158e-12 0)
(0.1902479 6.498271e-13 0)
(0.1902479 -6.3634879e-14 0)
(0.1902479 -5.3173124e-13 0)
(0.1902479 -8.5841861e-13 0)
(0.1902479 -1.0287665e-12 0)
(0.1902479 -1.0929635e-12 0)
(0.1902479 -1.1029207e-12 0)
(0.1902479 -1.101489e-12 0)
(0.1902479 -1.1124898e-12 0)
(0.1902479 -1.1330157e-12 0)
(0.1902479 -1.1578954e-12 0)
(0.1902479 -1.1293501e-12 0)
(0.1902479 -1.0706225e-12 0)
(0.1902479 -1.0950933e-12 0)
(0.1902479 -1.2828284e-12 0)
(0.1902479 -1.3127332e-12 0)
(0.1902479 -8.3663413e-13 0)
(0.1902479 -4.3394483e-13 0)
(0.1902479 -1.1395088e-12 0)
(0.1902479 -2.3408524e-12 0)
(0.1902479 -1.6332184e-12 0)
(0.59346672 0.21467329 0)
(0.54593347 0.075998408 0)
(0.39702192 0.039312309 0)
(0.34953974 0.019720572 0)
(0.30792187 0.010726745 0)
(0.28963523 0.0061583782 0)
(0.27651264 0.0034761789 0)
(0.26994405 0.0020290976 0)
(0.26565503 0.001140986 0)
(0.26342423 0.00065140721 0)
(0.26206335 0.00035633844 0)
(0.26136077 0.00019488131 0)
(0.26095907 0.00010130191 0)
(0.26076048 5.1597468e-05 0)
(0.260656 2.431984e-05 0)
(0.26060945 1.0645765e-05 0)
(0.26058866 3.7610634e-06 0)
(0.26058217 7.1139009e-07 0)
(0.26058122 -5.4312077e-07 0)
(0.26058278 -8.8470313e-07 0)
(0.2605848 -8.6493484e-07 0)
(0.26058673 -7.0580087e-07 0)
(0.26058825 -5.2987543e-07 0)
(0.26058939 -3.7491426e-07 0)
(0.26059018 -2.5548994e-07 0)
(0.26059072 -1.6856136e-07 0)
(0.26059108 -1.0856641e-07 0)
(0.2605913 -6.8350072e-08 0)
(0.26059144 -4.2214982e-08 0)
(0.26059153 -2.5571893e-08 0)
(0.26059158 -1.5215115e-08 0)
(0.26059162 -8.8841322e-09 0)
(0.26059163 -5.091481e-09 0)
(0.26059165 -2.8559342e-09 0)
(0.26059165 -1.5629987e-09 0)
(0.26059165 -8.2941926e-10 0)
(0.26059166 -4.2368498e-10 0)
(0.26059166 -2.059551e-10 0)
(0.26059166 -9.295603e-11 0)
(0.26059166 -3.609987e-11 0)
(0.26059166 -8.6061272e-12 0)
(0.26059166 3.4995413e-12 0)
(0.26059166 7.529048e-12 0)
(0.26059166 7.1165033e-12 0)
(0.26059166 5.0071461e-12 0)
(0.26059166 3.5574388e-12 0)
(0.26059166 3.3744138e-12 0)
(0.26059166 3.8153151e-12 0)
(0.26059166 4.4331579e-12 0)
(0.26059166 4.2197926e-12 0)
(0.26059166 3.6769628e-12 0)
(0.26059166 2.8326096e-12 0)
(0.26059166 2.4443993e-12 0)
(0.26059166 2.3197198e-12 0)
(0.26059166 2.3793678e-12 0)
(0.26059166 2.4007032e-12 0)
(0.26059166 2.1341039e-12 0)
(0.26059166 1.7494843e-12 0)
(0.26059166 1.8950053e-12 0)
(0.26059166 1.6148214e-12 0)
(0.26059166 1.6367089e-12 0)
(0.26059166 1.0629933e-12 0)
(0.26059166 7.7626929e-13 0)
(0.26059166 3.7357949e-13 0)
(0.26059166 4.2864871e-13 0)
(0.26059166 6.2570333e-13 0)
(0.26059166 1.0284627e-12 0)
(0.26059166 1.5656216e-12 0)
(0.26059166 1.865803e-12 0)
(0.26059166 1.7858335e-12 0)
(0.26059166 1.6122999e-12 0)
(0.26059166 1.1415305e-12 0)
(0.26059166 1.378729e-12 0)
(0.26059166 1.7018718e-12 0)
(0.26059166 2.428702e-12 0)
(0.26059166 2.465559e-12 0)
(0.26059166 1.9430673e-12 0)
(0.26059166 8.6077744e-13 0)
(0.26059166 -1.1547756e-13 0)
(0.26059166 -9.7622839e-13 0)
(0.26059166 -1.3473039e-12 0)
(0.26059166 -1.7177812e-12 0)
(0.26059166 -1.7808283e-12 0)
(0.26059166 -1.9811995e-12 0)
(0.26059166 -1.9252771e-12 0)
(0.26059166 -2.0120448e-12 0)
(0.26059166 -1.8703334e-12 0)
(0.26059166 -1.8942148e-12 0)
(0.26059166 -1.7207766e-12 0)
(0.26059166 -1.7251773e-12 0)