/*--------------------------------*- C++ -*----------------------------------*\
| =========                 |                                                 |
| \\      /  F ield         | OpenFOAM: The Open Source CFD Toolbox           |
|  \\    /   O peration     | Version:  2206                                  |
|   \\  /    A nd           | Website:  www.openfoam.com                      |
|    \\/     M anipulation  |                                                 |
\*---------------------------------------------------------------------------*/
FoamFile
{
    version     2.0;
    format      ascii;
    arch        "LSB;label=32;scalar=64";
    class       surfaceScalarField;
    location    "1";
    object      phi;
}
// * * * * * * * * * * * * * * * * * * * * * * * * * * * * * * * * * * * * * //

dimensions      [0 3 -1 0 0 0 0];

oriented        oriented;

internalField   nonuniform List<scalar> 
29650
(
6.0867648e-05
0.00020579915
3.271817e-05
2.8149479e-05
2.4599021e-05
8.1191484e-06
2.0417849e-05
4.181172e-06
1.8552178e-05
1.8656698e-06
1.73737e-05
1.1784765e-06
1.6781661e-05
5.9203758e-07
1.6412314e-05
3.6934554e-07
1.622082e-05
1.9149378e-07
1.6106686e-05
1.1413506e-07
1.6048258e-05
5.8428469e-08
1.6015474e-05
3.2784555e-08
1.5999542e-05
1.5932691e-08
1.5991376e-05
8.1658376e-09
1.5987889e-05
3.4870459e-09
1.598644e-05
1.44853e-09
1.5986091e-05
3.496122e-10
1.5986138e-05
-4.7971512e-11
1.5986349e-05
-2.1113893e-10
1.5986569e-05
-2.1985159e-10
1.5986762e-05
-1.9216119e-10
1.5986908e-05
-1.4597674e-10
1.5987014e-05
-1.0605466e-10
1.5987087e-05
-7.2715745e-11
1.5987136e-05
-4.8496482e-11
1.5987167e-05
-3.0859955e-11
1.5987187e-05
-1.8662212e-11
1.59872e-05
-1.0261243e-11
1.5987208e-05
-4.6866507e-12
1.5987212e-05
-1.2232203e-12
1.5987215e-05
8.0181318e-13
1.5987216e-05
1.7010843e-12
1.5987217e-05
1.7212476e-12
1.5987218e-05
1.1932164e-12
1.5987218e-05
5.5448548e-13
1.5987218e-05
8.4909808e-14
1.5987218e-05
-2.5538821e-13
1.5987218e-05
-4.449606e-13
1.5987218e-05
-4.6250068e-13
1.5987219e-05
-3.8567738e-13
1.5987219e-05
-2.6670306e-13
1.5987219e-05
-1.4671907e-13
1.5987219e-05
-6.1597966e-14
1.5987219e-05
-5.6535578e-17
1.5987219e-05
4.3259549e-14
1.5987219e-05
6.9073811e-14
1.5987219e-05
7.3113202e-14
1.5987219e-05
5.4278666e-14
1.5987219e-05
2.9379494e-14
1.5987219e-05
7.5382779e-15
1.5987219e-05
-8.9910982e-15
1.5987219e-05
-1.3427625e-14
1.5987219e-05
-9.6938672e-15
1.5987219e-05
-3.8313768e-15
1.5987219e-05
2.780276e-15
1.5987219e-05
6.9815726e-15
1.5987219e-05
6.8935549e-15
1.5987219e-05
3.8694945e-15
1.5987219e-05
9.8972242e-16
1.5987219e-05
-1.7733103e-15
1.5987219e-05
-2.0147823e-15
1.5987219e-05
-2.4130357e-15
1.5987219e-05
-1.555064e-15
1.5987219e-05
-1.5777083e-15
1.5987219e-05
-1.0511086e-15
1.5987219e-05
-1.9109202e-15
1.5987219e-05
-2.4698873e-15
1.5987219e-05
-3.202011e-15
1.5987219e-05
-3.0309986e-15
1.5987219e-05
-2.6813008e-15
1.5987219e-05
-1.0329516e-15
1.5987219e-05
-5.6701756e-16
1.5987219e-05
3.1475109e-16
1.5987219e-05
-2.1509143e-16
1.5987219e-05
-2.9277556e-16
1.5987219e-05
-9.519691e-16
1.5987219e-05
-7.8686672e-16
1.5987219e-05
-1.335758e-15
1.5987219e-05
-1.2862079e-15
1.5987219e-05
-1.5096694e-15
1.5987219e-05
-8.9607021e-16
1.5987219e-05
-8.0859516e-16
1.5987219e-05
-4.3147108e-16
1.5987219e-05
-5.7441199e-16
1.5987219e-05
1.1503766e-16
1.5987219e-05
7.3732953e-16
1.5987219e-05
1.3372858e-15
1.5987219e-05
7.1505208e-16
1.5987219e-05
-1.9390157e-16
1.5987219e-05
-1.1082618e-15
1.5987219e-05
-1.1863092e-15
1.5987219e-05
-1.1931374e-15
1.5987219e-05
-1.1538027e-15
1.5987219e-05
-1.9617791e-15
1.5987219e-05
-2.1673429e-15
1.5987219e-05
-2.0249193e-15
1.5987219e-05
-1.3294403e-15
1.5987219e-05
-1.7458351e-16
1.5987219e-05
6.9979019e-16
1.5987219e-05
2.3915701e-15
1.5987219e-05
3.5215986e-15
1.5987219e-05
4.0596779e-15
1.5987219e-05
3.1645261e-15
1.5987219e-05
3.6781688e-16
1.5987219e-05
-1.9065796e-15
1.5987219e-05
-3.5172362e-15
1.5987219e-05
-3.6329411e-15
1.5987219e-05
-4.0683421e-15
1.5987219e-05
-4.5959781e-15
1.5987219e-05
-6.0010727e-15
1.5987219e-05
-6.8091009e-15
1.5987219e-05
-6.2680781e-15
1.5987219e-05
-3.7366102e-15
1.5987219e-05
-1.1447318e-15
1.5987219e-05
2.6408189e-15
1.5987219e-05
3.7808483e-15
1.5987219e-05
5.4817918e-15
1.5987219e-05
4.3116822e-15
1.5987219e-05
4.3850198e-15
1.5987219e-05
2.8281128e-15
1.5987219e-05
3.298572e-15
1.5987219e-05
2.7486673e-15
1.5987219e-05
3.7074497e-15
1.5987219e-05
3.1460801e-15
1.5987219e-05
3.4691189e-15
1.5987219e-05
1.9252162e-15
1.5987219e-05
1.4466973e-15
1.5987219e-05
-3.9522946e-16
1.5987219e-05
-8.677953e-16
1.5987219e-05
-2.1542016e-15
1.5987219e-05
-6.7908053e-16
1.5987219e-05
-2.8962285e-16
1.5987219e-05
1.1344389e-15
1.5987219e-05
4.2845834e-16
1.5987219e-05
1.6606684e-15
1.5987219e-05
1.4671207e-15
1.5987219e-05
2.8363639e-15
1.5987219e-05
1.8079967e-15
1.5987219e-05
2.1416685e-15
1.5987219e-05
-4.5836709e-17
1.5987219e-05
-1.0346149e-16
1.5987219e-05
-2.4079336e-15
1.5987219e-05
-2.0047789e-15
1.5987219e-05
-3.5939288e-15
1.5987219e-05
-1.6772443e-15
1.5987219e-05
-1.7965027e-15
1.5987219e-05
8.5909158e-16
1.5987219e-05
2.1866507e-15
1.5987219e-05
4.8355636e-15
1.5987219e-05
6.5044937e-15
1.5987219e-05
7.484799e-15
1.5987219e-05
5.3502238e-15
1.5987219e-05
4.5977567e-15
1.5987219e-05
1.0071026e-16
1.5987219e-05
-1.530365e-15
1.5987219e-05
-4.783726e-15
1.5987219e-05
-5.1358596e-15
1.5987219e-05
-7.8047795e-15
1.5987219e-05
-9.1873154e-15
1.5987219e-05
-1.1666939e-14
1.5987219e-05
-1.1290999e-14
1.5987219e-05
-7.088685e-15
1.5987219e-05
-1.2955359e-15
1.5987219e-05
2.865089e-15
1.5987219e-05
7.429624e-15
1.5987219e-05
9.0850321e-15
1.5987219e-05
1.4658883e-14
1.5987219e-05
1.714142e-14
1.5987219e-05
2.1929768e-14
1.5987219e-05
2.1474141e-14
1.5987219e-05
2.240898e-14
1.5987219e-05
1.6369873e-14
1.5987219e-05
1.4738306e-14
1.5987219e-05
9.335638e-15
1.5987219e-05
1.332391e-14
1.5987219e-05
1.1875449e-14
1.5987219e-05
1.9113167e-14
1.5987219e-05
1.6204055e-14
1.5987219e-05
2.5482254e-14
1.5987219e-05
3.1289896e-14
1.5987219e-05
5.532223e-14
1.5987219e-05
6.353852e-14
1.5987219e-05
6.9950944e-14
1.5987219e-05
5.0283898e-14
1.5987219e-05
3.950689e-14
1.5987219e-05
1.8462681e-14
1.5987219e-05
2.2037573e-14
1.5987219e-05
1.3178017e-14
1.5987219e-05
2.7777292e-14
1.5987219e-05
2.1707322e-14
1.5987219e-05
4.5860144e-14
1.5987219e-05
3.7546374e-14
1.5987219e-05
5.7751425e-14
1.5987219e-05
3.527491e-14
1.5987219e-05
5.1280767e-14
1.5987219e-05
1.2409535e-14
1.5987219e-05
1.1455908e-14
1.5987219e-05
-3.6790131e-14
1.5987219e-05
-3.3318031e-14
1.5987219e-05
-5.3971467e-14
1.5987219e-05
-3.3415237e-14
1.5987219e-05
-4.9084699e-14
1.5987219e-05
-2.8932936e-14
1.5987219e-05
-5.1544794e-14
1.5987219e-05
-3.2081209e-14
1.5987219e-05
-4.4856461e-14
1.5987219e-05
-2.2297146e-14
1.5987219e-05
-1.743724e-14
1.5987219e-05
2.2763428e-15
1.5987219e-05
-1.7656244e-14
1.5987219e-05
-4.1899463e-14
1.5987219e-05
-7.5892223e-14
1.5987219e-05
-8.1195247e-14
1.5987219e-05
-6.5540165e-14
1.5987219e-05
-4.8527039e-14
1.5987218e-05
-3.2435384e-14
1.5987218e-05
-3.3926634e-14
1.5987218e-05
-1.7538259e-14
1.5987218e-05
-1.4081713e-14
1.5987218e-05
7.3885494e-15
1.5987218e-05
1.8967877e-15
1.5987218e-05
5.4959724e-15
1.5987218e-05
-1.8245063e-14
1.5987218e-05
-1.2335174e-14
1.5987218e-05
-2.529312e-14
1.5987218e-05
-1.0514742e-14
1.5987218e-05
-2.8641189e-14
1.5987218e-05
-9.721077e-15
1.5987218e-05
-9.3751059e-15
1.5987218e-05
2.7989674e-14
1.5987218e-05
3.0774216e-14
1.5987218e-05
5.0285032e-14
1.5987218e-05
2.214202e-14
1.5987218e-05
1.1302264e-14
1.5987218e-05
-2.883275e-14
1.5987218e-05
-3.5331139e-14
1.5987218e-05
-6.1487713e-14
1.5987218e-05
-4.8355245e-14
1.5987218e-05
-5.0829134e-14
1.5987218e-05
-2.2576959e-14
1.5987218e-05
-1.437057e-14
1.5987218e-05
1.8393987e-14
1.5987218e-05
2.6748316e-14
1.5987218e-05
5.4168205e-14
1.5987218e-05
5.3001347e-14
1.5987218e-05
6.6184849e-14
1.5987218e-05
4.8353684e-14
1.5987218e-05
4.3755378e-14
1.5987218e-05
1.7292796e-14
1.5987218e-05
6.6201299e-16
1.5987218e-05
-1.7436973e-14
1.5987219e-05
-1.2371537e-14
1.5987219e-05
7.6882234e-15
1.5987219e-05
3.8749497e-14
1.5987219e-05
6.3812527e-14
1.5987219e-05
4.9019238e-14
1.5987219e-05
2.3023093e-14
1.5987219e-05
-2.1514301e-14
1.5987219e-05
-3.6660255e-14
1.5987219e-05
-4.6184923e-14
1.5987219e-05
-2.2815949e-14
1.5987219e-05
-1.2829504e-15
1.5987219e-05
3.7140385e-14
1.5987219e-05
5.1444148e-14
1.5987219e-05
7.2354038e-14
1.5987219e-05
5.1464291e-14
1.5987219e-05
4.6794956e-14
1.5987219e-05
5.347125e-15
1.5987219e-05
-5.7784794e-15
1.5987219e-05
-3.1159292e-14
1.5987219e-05
-2.3178409e-14
1.5987219e-05
-3.3411048e-14
1.5987219e-05
-2.931158e-15
1.5987219e-05
-3.2911365e-15
1.5987219e-05
2.2856245e-14
1.5987219e-05
1.4331435e-14
1.5987219e-05
2.9241823e-14
1.5987219e-05
-9.8163423e-15
1.5987219e-05
-2.1320833e-14
1.5987219e-05
-5.4463798e-14
1.5987219e-05
-3.3611486e-14
1.5987219e-05
5.6314513e-16
1.5987219e-05
1.3914415e-14
1.5987219e-05
7.7471907e-14
1.5987219e-05
3.7642538e-14
1.5987219e-05
1.2916042e-13
1.5987219e-05
-8.0367306e-16
1.5987219e-05
1.3580932e-13
1.5987219e-05
-2.967957e-15
1.5987219e-05
-7.3840469e-14
1.5987219e-05
-3.6484357e-13
1.5987218e-05
-1.0256461e-12
1.5987218e-05
-1.0230983e-12
1.5987218e-05
-1.3000073e-12
1.5987219e-05
-4.1684675e-13
1.598722e-05
1.2399402e-12
1.5987219e-05
1.0500221e-12
1.598722e-05
2.6114436e-12
1.5987219e-05
3.3879075e-12
1.9784641e-12
0.00014027132
0.00033219463
9.2549244e-05
7.5871554e-05
7.0338073e-05
3.0330319e-05
5.9620314e-05
1.489893e-05
5.4019642e-05
7.4663403e-06
5.0795344e-05
4.4027739e-06
4.901105e-05
2.3763301e-06
4.7964745e-05
1.4156493e-06
4.7384384e-05
7.7185405e-07
4.7052233e-05
4.4628596e-07
4.6872682e-05
2.3798041e-07
4.677453e-05
1.3093692e-07
4.6724187e-05
6.6276844e-08
4.6698685e-05
3.3667719e-08
4.6686924e-05
1.5247546e-08
4.6681893e-05
6.4803433e-09
4.6680252e-05
1.9902572e-09
4.6680058e-05
1.4576144e-10
4.6680445e-05
-5.9790633e-10
4.6680961e-05
-7.3640931e-10
4.6681443e-05
-6.7349447e-10
4.6681826e-05
-5.2922098e-10
4.668211e-05
-3.9006424e-10
4.6682309e-05
-2.7170516e-10
4.6682444e-05
-1.8312016e-10
4.6682532e-05
-1.1875858e-10
4.6682589e-05
-7.4184251e-11
4.6682624e-05
-4.3891976e-11
4.6682646e-05
-2.3903631e-11
4.6682659e-05
-1.1284645e-11
4.6682667e-05
-3.7959281e-12
4.6682672e-05
-9.1374306e-14
4.6682675e-05
1.5032949e-12
4.6682676e-05
1.4214046e-12
4.6682677e-05
6.5339743e-13
4.6682678e-05
-2.3200286e-14
4.6682678e-05
-6.1293794e-13
4.6682678e-05
-9.6582963e-13
4.6682678e-05
-9.6099837e-13
4.6682678e-05
-7.7009433e-13
4.6682678e-05
-5.2915043e-13
4.6682678e-05
-3.1551994e-13
4.6682678e-05
-1.457194e-13
4.6682678e-05
-1.9399312e-14
4.6682678e-05
7.5507842e-14
4.6682678e-05
1.29653e-13
4.6682678e-05
1.4184096e-13
4.6682678e-05
1.0755476e-13
4.6682678e-05
5.9806351e-14
4.6682678e-05
1.4407793e-14
4.6682678e-05
-1.703522e-14
4.6682678e-05
-2.5932946e-14
4.6682678e-05
-1.8791685e-14
4.6682678e-05
-6.8057584e-15
4.6682678e-05
6.9480971e-15
4.6682678e-05
1.5125027e-14
4.6682678e-05
1.4276205e-14
4.6682678e-05
7.9720776e-15
4.6682678e-05
1.9931586e-15
4.6682678e-05
-3.3452983e-15
4.6682678e-05
-4.0154472e-15
4.6682678e-05
-4.7257474e-15
4.6682678e-05
-3.0319896e-15
4.6682678e-05
-2.8885235e-15
4.6682678e-05
-1.8820983e-15
4.6682678e-05
-3.3648941e-15
4.6682678e-05
-4.6823041e-15
4.6682678e-05
-5.9334612e-15
4.6682678e-05
-5.7837231e-15
4.6682678e-05
-4.9977374e-15
4.6682678e-05
-2.0052518e-15
4.6682678e-05
-9.4795994e-16
4.6682678e-05
6.7486439e-16
4.6682678e-05
-2.4417903e-16
4.6682678e-05
-5.5864242e-16
4.6682678e-05
-1.7712919e-15
4.6682678e-05
-1.5586314e-15
4.6682678e-05
-2.5351875e-15
4.6682678e-05
-2.5633944e-15
4.6682678e-05
-2.9386382e-15
4.6682678e-05
-1.8053235e-15
4.6682678e-05
-1.6096275e-15
4.6682678e-05
-8.7076918e-16
4.6682678e-05
-1.0882964e-15
4.6682678e-05
3.3908819e-16
4.6682678e-05
1.5966444e-15
4.6682678e-05
2.8099422e-15
4.6682678e-05
1.5854818e-15
4.6682678e-05
-1.5222814e-16
4.6682678e-05
-2.1491481e-15
4.6682678e-05
-2.3296076e-15
4.6682678e-05
-2.1373183e-15
4.6682678e-05
-2.2530239e-15
4.6682678e-05
-3.5965502e-15
4.6682678e-05
-4.2129338e-15
4.6682678e-05
-3.7861857e-15
4.6682678e-05
-2.4393591e-15
4.6682678e-05
-2.881283e-16
4.6682678e-05
1.6110861e-15
4.6682678e-05
4.3967784e-15
4.6682678e-05
6.8070525e-15
4.6682678e-05
8.0184884e-15
4.6682678e-05
6.0157792e-15
4.6682678e-05
8.8783814e-16
4.6682678e-05
-3.8914592e-15
4.6682678e-05
-7.0474477e-15
4.6682678e-05
-7.3616153e-15
4.6682678e-05
-8.0766039e-15
4.6682678e-05
-9.6242338e-15
4.6682678e-05
-1.2493468e-14
4.6682678e-05
-1.4208229e-14
4.6682678e-05
-1.2655101e-14
4.6682678e-05
-7.2436992e-15
4.6682678e-05
-2.124456e-15
4.6682678e-05
4.6227617e-15
4.6682678e-05
7.5473455e-15
4.6682678e-05
1.0141675e-14
4.6682678e-05
8.3331863e-15
4.6682678e-05
8.0888372e-15
4.6682678e-05
5.3233326e-15
4.6682678e-05
5.9270223e-15
4.6682678e-05
5.0638666e-15
4.6682678e-05
6.7605661e-15
4.6682678e-05
6.1344693e-15
4.6682678e-05
6.5454497e-15
4.6682678e-05
3.716197e-15
4.6682678e-05
2.4818997e-15
4.6682678e-05
-6.4267976e-16
4.6682678e-05
-1.9369375e-15
4.6682678e-05
-4.2369986e-15
4.6682678e-05
-1.6009316e-15
4.6682678e-05
-4.3245669e-16
4.6682678e-05
1.9822825e-15
4.6682678e-05
1.0218469e-15
4.6682678e-05
3.0003901e-15
4.6682678e-05
3.0064094e-15
4.6682678e-05
5.4182394e-15
4.6682678e-05
3.7436573e-15
4.6682678e-05
3.9525649e-15
4.6682678e-05
1.7770525e-16
4.6682678e-05
-4.9741718e-16
4.6682678e-05
-4.4399023e-15
4.6682678e-05
-4.4985268e-15
4.6682678e-05
-6.6655939e-15
4.6682678e-05
-3.7316599e-15
4.6682678e-05
-3.0717817e-15
4.6682678e-05
1.6791714e-15
4.6682678e-05
4.4071019e-15
4.6682678e-05
9.5863229e-15
4.6682678e-05
1.2007172e-14
4.6682678e-05
1.4116687e-14
4.6682678e-05
1.0594903e-14
4.6682678e-05
8.2457183e-15
4.6682678e-05
8.529527e-16
4.6682678e-05
-3.1954191e-15
4.6682678e-05
-9.2705422e-15
4.6682678e-05
-1.0426193e-14
4.6682678e-05
-1.5122145e-14
4.6682678e-05
-1.9081696e-14
4.6682678e-05
-2.4166326e-14
4.6682678e-05
-2.3594852e-14
4.6682678e-05
-1.533479e-14
4.6682678e-05
-3.1934944e-15
4.6682678e-05
5.3206225e-15
4.6682678e-05
1.3080811e-14
4.6682678e-05
1.6663267e-14
4.6682678e-05
2.6630947e-14
4.6682678e-05
3.1597756e-14
4.6682678e-05
4.010718e-14
4.6682678e-05
3.9606491e-14
4.6682678e-05
4.0118071e-14
4.6682678e-05
2.8930207e-14
4.6682678e-05
2.3242051e-14
4.6682678e-05
1.4177752e-14
4.6682678e-05
1.9141668e-14
4.6682678e-05
1.8111207e-14
4.6682678e-05
2.8419932e-14
4.6682678e-05
2.4101871e-14
4.6682679e-05
3.775327e-14
4.6682679e-05
5.1051352e-14
4.6682679e-05
9.5932479e-14
4.6682679e-05
1.1717126e-13
4.6682679e-05
1.2935793e-13
4.6682679e-05
9.2835974e-14
4.6682679e-05
6.6862694e-14
4.6682679e-05
2.9900418e-14
4.6682679e-05
3.2408728e-14
4.6682679e-05
1.778176e-14
4.6682679e-05
3.9956294e-14
4.6682679e-05
3.1298542e-14
4.6682679e-05
6.9034551e-14
4.6682679e-05
5.9934553e-14
4.6682679e-05
9.0080826e-14
4.6682679e-05
5.4792947e-14
4.6682679e-05
7.5339952e-14
4.6682679e-05
1.7605513e-14
4.6682679e-05
9.2354644e-15
4.668268e-05
-7.7300832e-14
4.668268e-05
-7.6238831e-14
4.6682679e-05
-1.0153477e-13
4.6682679e-05
-5.5089342e-14
4.6682679e-05
-6.9072332e-14
4.6682679e-05
-3.3345609e-14
4.6682679e-05
-6.3150804e-14
4.6682679e-05
-3.3805954e-14
4.6682679e-05
-5.2435841e-14
4.6682679e-05
-1.7282499e-14
4.6682679e-05
-8.2603431e-15
4.6682679e-05
2.3681594e-14
4.6682678e-05
-7.2477288e-15
4.6682678e-05
-5.8415898e-14
4.6682678e-05
-1.2443378e-13
4.6682678e-05
-1.3834784e-13
4.6682678e-05
-1.1033821e-13
4.6682678e-05
-7.4487248e-14
4.6682678e-05
-4.6936373e-14
4.6682678e-05
-4.3000903e-14
4.6682678e-05
-1.5466277e-14
4.6682678e-05
-6.1679005e-15
4.6682678e-05
3.2128748e-14
4.6682678e-05
2.4197468e-14
4.6682677e-05
2.9843156e-14
4.6682677e-05
-1.0214134e-14
4.6682677e-05
-9.7540961e-15
4.6682677e-05
-3.7136769e-14
4.6682677e-05
-2.2726899e-14
4.6682677e-05
-5.6933373e-14
4.6682677e-05
-3.0035504e-14
4.6682677e-05
-2.5539651e-14
4.6682677e-05
3.8886386e-14
4.6682677e-05
5.1943028e-14
4.6682677e-05
8.4335018e-14
4.6682677e-05
3.8215019e-14
4.6682677e-05
1.1981512e-14
4.6682678e-05
-5.9621489e-14
4.6682678e-05
-8.5900127e-14
4.6682678e-05
-1.2470209e-13
4.6682678e-05
-1.0572941e-13
4.6682678e-05
-1.0414512e-13
4.6682678e-05
-5.3830983e-14
4.6682678e-05
-2.9912526e-14
4.6682678e-05
2.85794e-14
4.6682678e-05
4.8804742e-14
4.6682678e-05
9.7768711e-14
4.6682678e-05
1.0091047e-13
4.6682678e-05
1.2300953e-13
4.6682678e-05
9.2733027e-14
4.6682678e-05
7.5950423e-14
4.6682678e-05
2.1045285e-14
4.6682678e-05
-1.1270993e-14
4.6682678e-05
-5.301331e-14
4.6682678e-05
-4.7294959e-14
4.6682678e-05
-7.5118398e-15
4.6682678e-05
5.2323716e-14
4.6682678e-05
1.071939e-13
4.6682678e-05
8.6951078e-14
4.6682678e-05
2.9860026e-14
4.6682678e-05
-5.0324326e-14
4.6682678e-05
-8.7263417e-14
4.6682678e-05
-1.0221785e-13
4.6682679e-05
-5.7814596e-14
4.6682679e-05
-1.3732316e-14
4.6682679e-05
5.9954564e-14
4.6682679e-05
8.6920955e-14
4.6682679e-05
1.2301751e-13
4.6682679e-05
9.1430838e-14
4.6682679e-05
7.3635959e-14
4.6682679e-05
1.262266e-15
4.6682679e-05
-2.678243e-14
4.6682679e-05
-7.5590058e-14
4.6682679e-05
-6.6967563e-14
4.6682679e-05
-8.0506731e-14
4.6682679e-05
-2.6231831e-14
4.6682679e-05
-1.8864671e-14
4.6682679e-05
3.3950942e-14
4.6682679e-05
3.1797646e-14
4.6682679e-05
6.0214345e-14
4.6682679e-05
-4.1205901e-15
4.6682679e-05
-2.9233597e-14
4.6682679e-05
-8.8684016e-14
4.6682679e-05
-4.5563851e-14
4.6682679e-05
4.193809e-15
4.6682679e-05
5.4216564e-14
4.6682679e-05
1.2990454e-13
4.6682679e-05
1.3985217e-13
4.6682679e-05
2.0404524e-13
4.6682679e-05
9.0408647e-14
4.6682679e-05
2.0990477e-13
4.6682678e-05
3.7711294e-14
4.6682678e-05
-2.2268092e-13
4.6682678e-05
-8.9281983e-13
4.6682678e-05
-1.884551e-12
4.6682678e-05
-2.2024849e-12
4.6682678e-05
-2.0768321e-12
4.6682679e-05
-3.5381015e-13
4.668268e-05
2.3747625e-12
4.6682679e-05
2.701735e-12
4.668268e-05
3.9683363e-12
4.6682679e-05
6.4928605e-12
4.3333882e-12
0.00019469214
0.00040416929
0.00014360962
0.00012695408
0.00011230147
6.1638462e-05
9.6619294e-05
3.058111e-05
8.7762221e-05
1.6323414e-05
8.2755406e-05
9.4095889e-06
7.9871701e-05
5.2600348e-06
7.8206034e-05
3.0813167e-06
7.7256668e-05
1.721219e-06
7.6718195e-05
9.8475904e-07
7.6420462e-05
5.3571225e-07
7.6258218e-05
2.9318116e-07
7.6172993e-05
1.5150205e-07
7.61296e-05
7.7060885e-08
7.6108851e-05
3.5996437e-08
7.6099695e-05
1.5636034e-08
7.6096324e-05
5.3611672e-09
7.6095587e-05
8.8255462e-10
7.6095937e-05
-9.4721414e-10
7.6096611e-05
-1.4111801e-09
7.609729e-05
-1.3531144e-09
7.6097854e-05
-1.0930805e-09
7.609828e-05
-8.1672347e-10
7.6098584e-05
-5.758978e-10
7.6098791e-05
-3.9166729e-10
7.6098929e-05
-2.5744254e-10
7.6099018e-05
-1.643702e-10
7.6099074e-05
-1.014139e-10
7.6099109e-05
-5.9994839e-11
7.609913e-05
-3.3540258e-11
7.6099143e-05
-1.7188399e-11
7.609915e-05
-7.6913687e-12
7.6099154e-05
-2.7745748e-12
7.6099157e-05
-7.476004e-13
7.6099158e-05
-2.4155825e-13
7.6099159e-05
-3.115054e-13
7.609916e-05
-6.4958374e-13
7.609916e-05
-9.5960512e-13
7.609916e-05
-9.9150427e-13
7.609916e-05
-8.4806817e-13
7.609916e-05
-6.5097401e-13
7.609916e-05
-4.3932061e-13
7.609916e-05
-2.4188413e-13
7.609916e-05
-9.2089725e-14
7.609916e-05
2.1574081e-14
7.609916e-05
9.6744125e-14
7.609916e-05
1.2916277e-13
7.609916e-05
1.1226872e-13
7.609916e-05
7.0794161e-14
7.609916e-05
2.677165e-14
7.609916e-05
-9.6419203e-15
7.609916e-05
-2.235622e-14
7.609916e-05
-1.8220452e-14
7.609916e-05
-7.4839171e-15
7.609916e-05
6.5741474e-15
7.609916e-05
1.6756893e-14
7.609916e-05
1.8453962e-14
7.609916e-05
1.2870071e-14
7.609916e-05
6.5254908e-15
7.609916e-05
-1.6991417e-16
7.609916e-05
-1.6828238e-15
7.609916e-05
-3.2696121e-15
7.609916e-05
-1.4047795e-15
7.609916e-05
-1.0236189e-15
7.609916e-05
8.6166582e-16
7.609916e-05
-4.3224567e-16
7.609916e-05
-1.8031957e-15
7.609916e-05
-3.8028644e-15
7.609916e-05
-4.0639025e-15
7.609916e-05
-4.0866947e-15
7.609916e-05
-1.1260628e-15
7.609916e-05
-3.7021587e-16
7.609916e-05
1.6219703e-15
7.609916e-05
6.6660137e-16
7.609916e-05
7.2870432e-16
7.609916e-05
-6.1316581e-16
7.609916e-05
-2.4449548e-16
7.609916e-05
-1.4710655e-15
7.609916e-05
-1.3518475e-15
7.609916e-05
-1.8233614e-15
7.609916e-05
-3.4652321e-16
7.609916e-05
-7.654759e-17
7.609916e-05
1.0258061e-15
7.609916e-05
9.1315075e-16
7.609916e-05
2.6777061e-15
7.609916e-05
4.2911742e-15
7.609916e-05
6.0668428e-15
7.609916e-05
4.8221896e-15
7.609916e-05
2.781828e-15
7.609916e-05
1.5902293e-16
7.609916e-05
-7.2482877e-16
7.609916e-05
-1.3342797e-15
7.609916e-05
-1.3087094e-15
7.609916e-05
-2.8291844e-15
7.609916e-05
-3.0400322e-15
7.609916e-05
-2.4347385e-15
7.609916e-05
-6.1671722e-16
7.609916e-05
1.9835308e-15
7.609916e-05
4.2747387e-15
7.609916e-05
7.9741555e-15
7.609916e-05
1.0666548e-14
7.609916e-05
1.1849763e-14
7.609916e-05
9.5735287e-15
7.609916e-05
3.056136e-15
7.609916e-05
-2.7347239e-15
7.609916e-05
-7.231411e-15
7.609916e-05
-8.136752e-15
7.609916e-05
-9.2794344e-15
7.609916e-05
-1.0332141e-14
7.609916e-05
-1.3645897e-14
7.609916e-05
-1.6817822e-14
7.609916e-05
-1.6733098e-14
7.609916e-05
-1.1850256e-14
7.609916e-05
-6.64332e-15
7.609916e-05
1.1633909e-15
7.609916e-05
4.2681672e-15
7.609916e-05
7.9111017e-15
7.609916e-05
6.0702601e-15
7.609916e-05
6.5697759e-15
7.609916e-05
3.4973227e-15
7.609916e-05
4.6111614e-15
7.609916e-05
3.3076037e-15
7.609916e-05
5.4460048e-15
7.609916e-05
4.9139952e-15
7.609916e-05
6.834402e-15
7.609916e-05
4.9419836e-15
7.609916e-05
4.8707878e-15
7.609916e-05
1.8223914e-15
7.609916e-05
1.269475e-15
7.609916e-05
-1.002939e-15
7.609916e-05
2.2045737e-15
7.609916e-05
3.0726006e-15
7.609916e-05
5.7973356e-15
7.609916e-05
4.302438e-15
7.609916e-05
6.8147957e-15
7.609916e-05
6.2022624e-15
7.609916e-05
9.0211816e-15
7.609916e-05
6.6096948e-15
7.609916e-05
7.116147e-15
7.609916e-05
2.2016133e-15
7.609916e-05
1.6772498e-15
7.609916e-05
-3.5095784e-15
7.609916e-05
-3.0204633e-15
7.609916e-05
-6.214473e-15
7.609916e-05
-2.1647134e-15
7.609916e-05
-1.8599318e-15
7.609916e-05
4.347277e-15
7.609916e-05
7.8428755e-15
7.609916e-05
1.4168776e-14
7.609916e-05
1.7896869e-14
7.609916e-05
2.0699632e-14
7.609916e-05
1.6808558e-14
7.609916e-05
1.4938127e-14
7.609916e-05
5.4215448e-15
7.609916e-05
1.1188315e-15
7.609916e-05
-6.8849676e-15
7.609916e-05
-8.6859644e-15
7.609916e-05
-1.4140977e-14
7.609916e-05
-1.7126911e-14
7.609916e-05
-2.3437455e-14
7.609916e-05
-2.4810623e-14
7.609916e-05
-1.8555925e-14
7.609916e-05
-6.5139421e-15
7.609916e-05
2.6060012e-15
7.609916e-05
1.2372765e-14
7.609916e-05
1.6907635e-14
7.609916e-05
2.9062592e-14
7.609916e-05
3.502422e-14
7.609916e-05
4.4763566e-14
7.609916e-05
4.4041007e-14
7.609916e-05
4.5484376e-14
7.609916e-05
3.2911463e-14
7.6099161e-05
2.8234209e-14
7.6099161e-05
1.6449205e-14
7.6099161e-05
2.2600343e-14
7.6099161e-05
1.7266887e-14
7.6099161e-05
2.9970164e-14
7.6099161e-05
2.2003796e-14
7.6099161e-05
3.9534982e-14
7.6099161e-05
4.9444323e-14
7.6099161e-05
9.8068896e-14
7.6099161e-05
1.2131512e-13
7.6099161e-05
1.489531e-13
7.6099161e-05
1.2054799e-13
7.6099161e-05
1.0408419e-13
7.6099161e-05
6.2085402e-14
7.6099161e-05
6.4703809e-14
7.6099161e-05
4.150625e-14
7.6099161e-05
6.5861463e-14
7.6099161e-05
4.8388841e-14
7.6099161e-05
8.9237975e-14
7.6099161e-05
6.8483192e-14
7.6099162e-05
1.0377029e-13
7.6099162e-05
5.8711819e-14
7.6099162e-05
8.9447402e-14
7.6099162e-05
2.8745652e-14
7.6099162e-05
3.8966996e-14
7.6099162e-05
-5.5201508e-14
7.6099162e-05
-5.852134e-14
7.6099162e-05
-1.1150047e-13
7.6099162e-05
-7.1593e-14
7.6099162e-05
-9.8872305e-14
7.6099162e-05
-5.0454214e-14
7.6099161e-05
-8.2012019e-14
7.6099161e-05
-3.7131596e-14
7.6099161e-05
-5.7466152e-14
7.6099161e-05
-1.8361875e-14
7.6099161e-05
-1.5523008e-14
7.6099161e-05
2.1009157e-14
7.6099161e-05
-9.8341746e-15
7.6099161e-05
-5.3766133e-14
7.609916e-05
-1.2783655e-13
7.609916e-05
-1.5296417e-13
7.609916e-05
-1.351564e-13
7.609916e-05
-1.0078223e-13
7.609916e-05
-6.2717116e-14
7.609916e-05
-5.2419679e-14
7.609916e-05
-1.4768919e-14
7.609916e-05
-7.8979717e-15
7.609916e-05
3.4347023e-14
7.609916e-05
2.2634405e-14
7.6099159e-05
3.6867104e-14
7.6099159e-05
-4.7590996e-15
7.6099159e-05
4.7368385e-15
7.6099159e-05
-2.6330185e-14
7.6099159e-05
-5.6517312e-15
7.6099159e-05
-5.2182473e-14
7.6099159e-05
-2.5624837e-14
7.6099159e-05
-3.553445e-14
7.6099159e-05
3.3150511e-14
7.6099159e-05
3.8795436e-14
7.6099159e-05
8.0237053e-14
7.6099159e-05
3.0966769e-14
7.6099159e-05
1.3466216e-14
7.6099159e-05
-6.9512603e-14
7.609916e-05
-8.9677133e-14
7.609916e-05
-1.4885555e-13
7.609916e-05
-1.2581962e-13
7.609916e-05
-1.3255221e-13
7.609916e-05
-7.3413121e-14
7.609916e-05
-5.0612476e-14
7.609916e-05
2.0907817e-14
7.609916e-05
4.4714902e-14
7.609916e-05
1.021605e-13
7.609916e-05
1.0021344e-13
7.609916e-05
1.3063818e-13
7.609916e-05
1.0473263e-13
7.609916e-05
9.9132874e-14
7.609916e-05
4.5098026e-14
7.609916e-05
1.3513999e-14
7.609916e-05
-3.5743179e-14
7.609916e-05
-3.9429362e-14
7.609916e-05
-1.5095939e-14
7.609916e-05
3.473324e-14
7.609916e-05
9.2552023e-14
7.609916e-05
7.866237e-14
7.6099161e-05
4.1155863e-14
7.6099161e-05
-4.2098569e-14
7.6099161e-05
-7.3272143e-14
7.6099161e-05
-1.0160465e-13
7.6099161e-05
-6.232392e-14
7.6099161e-05
-2.5564495e-14
7.6099161e-05
4.9135963e-14
7.6099161e-05
8.0488701e-14
7.6099161e-05
1.2460889e-13
7.6099161e-05
9.4376308e-14
7.6099161e-05
8.5549772e-14
7.6099161e-05
3.5907648e-15
7.6099161e-05
-1.9306005e-14
7.6099161e-05
-7.5174605e-14
7.6099161e-05
-6.3081454e-14
7.6099161e-05
-8.7126238e-14
7.6099161e-05
-3.640551e-14
7.6099162e-05
-4.1920513e-14
7.6099162e-05
1.6582271e-14
7.6099161e-05
1.0373644e-14
7.6099161e-05
6.2572502e-14
7.6099161e-05
-2.4168506e-16
7.6099161e-05
-1.7232586e-14
7.6099161e-05
-8.2921991e-14
7.6099161e-05
-5.2248776e-14
7.6099161e-05
1.7938556e-15
7.6099161e-05
3.2677232e-14
7.6099161e-05
1.7851031e-13
7.6099161e-05
1.3137119e-13
7.6099161e-05
3.4350235e-13
7.6099161e-05
1.2561177e-13
7.6099161e-05
3.6604881e-13
7.6099161e-05
-4.6232298e-15
7.609916e-05
-3.6339525e-13
7.609916e-05
-1.1977637e-12
7.609916e-05
-2.643573e-12
7.609916e-05
-2.5945725e-12
7.609916e-05
-2.5286405e-12
7.6099161e-05
-1.6591965e-13
7.6099162e-05
3.250898e-12
7.6099162e-05
2.6063327e-12
7.6099163e-05
5.0566533e-12
7.6099161e-05
5.9342061e-12
2.9626373e-12
0.00023312986
0.00043770623
0.00018548527
0.00017459868
0.00015018421
9.6939518e-05
0.0001310242
4.9741121e-05
0.00011965162
2.7695992e-05
0.0001131446
1.591661e-05
0.00010931814
9.0864947e-06
0.00010710183
5.2976262e-06
0.0001058215
3.0015555e-06
0.00010509347
1.7127871e-06
0.00010468612
9.4305778e-07
0.00010446306
5.1623961e-07
0.00010434425
2.703165e-07
0.00010428311
1.3819647e-07
0.00010425319
6.5915986e-08
0.00010423959
2.9235358e-08
0.0001042342
1.0752585e-08
0.00010423268
2.4042374e-09
0.00010423281
-1.0817591e-09
0.00010423352
-2.1175896e-09
0.00010423431
-2.1455887e-09
0.000104235
-1.7809058e-09
0.00010423553
-1.3497625e-09
0.00010423592
-9.6241818e-10
0.00010423618
-6.6004997e-10
0.00010423636
-4.3819967e-10
0.00010423648
-2.8352783e-10
0.00010423655
-1.788295e-10
0.0001042366
-1.0972496e-10
0.00010423662
-6.5216736e-11
0.00010423664
-3.7087985e-11
0.00010423665
-1.9829102e-11
0.00010423666
-9.8079528e-12
0.00010423666
-4.3463219e-12
0.00010423666
-1.7755061e-12
0.00010423666
-7.2036492e-13
0.00010423666
-4.9310465e-13
0.00010423666
-6.4629603e-13
0.00010423666
-7.459098e-13
0.00010423666
-7.5492828e-13
0.00010423666
-6.9049092e-13
0.00010423666
-5.5641295e-13
0.00010423666
-3.6965951e-13
0.00010423666
-2.1347528e-13
0.00010423666
-8.5857185e-14
0.00010423666
7.0350925e-15
0.00010423666
7.0436112e-14
0.00010423666
9.1338285e-14
0.00010423666
7.7800956e-14
0.00010423666
4.3282984e-14
0.00010423666
7.387296e-15
0.00010423666
-1.0194032e-14
0.00010423666
-1.2268361e-14
0.00010423666
-7.1270987e-15
0.00010423666
4.0294577e-15
0.00010423666
1.6172966e-14
0.00010423666
2.1885355e-14
0.00010423666
1.9140009e-14
0.00010423666
1.3515713e-14
0.00010423666
5.959496e-15
0.00010423666
3.2152927e-15
0.00010423666
3.7790697e-16
0.00010423666
2.1235051e-15
0.00010423666
2.9235601e-15
0.00010423666
6.0531802e-15
0.00010423666
5.5836349e-15
0.00010423666
4.4088003e-15
0.00010423666
1.3315327e-15
0.00010423666
7.9120674e-18
0.00010423666
-1.438271e-15
0.00010423666
6.06172e-16
0.00010423666
7.45e-16
0.00010423666
2.9749373e-15
0.00010423666
2.2650769e-15
0.00010423666
2.9068401e-15
0.00010423666
1.7017738e-15
0.00010423666
2.2205337e-15
0.00010423666
9.4545343e-16
0.00010423666
1.2121615e-15
0.00010423666
7.8155623e-16
0.00010423666
2.4751532e-15
0.00010423666
2.8656975e-15
0.00010423666
4.3387737e-15
0.00010423666
4.4279947e-15
0.00010423666
6.5464712e-15
0.00010423666
8.5541209e-15
0.00010423666
1.1094906e-14
0.00010423666
1.01415e-14
0.00010423666
7.9821128e-15
0.00010423666
4.3659125e-15
0.00010423666
2.3267414e-15
0.00010423666
5.9099911e-16
0.00010423666
6.570681e-16
0.00010423666
-3.3708846e-16
0.00010423666
-5.8893129e-17
0.00010423666
1.031808e-15
0.00010423666
3.0638362e-15
0.00010423666
5.6526945e-15
0.00010423666
8.1260504e-15
0.00010423666
1.1842498e-14
0.00010423666
1.4882542e-14
0.00010423666
1.6394491e-14
0.00010423666
1.4000083e-14
0.00010423666
7.1773925e-15
0.00010423666
4.7691536e-16
0.00010423666
-5.2130081e-15
0.00010423666
-7.2964132e-15
0.00010423666
-8.9008946e-15
0.00010423666
-9.2639531e-15
0.00010423666
-1.2705567e-14
0.00010423666
-1.7677861e-14
0.00010423666
-2.0548171e-14
0.00010423666
-1.7369422e-14
0.00010423666
-1.3237712e-14
0.00010423666
-5.7090009e-15
0.00010423666
-2.2709015e-15
0.00010423666
1.7478521e-15
0.00010423666
5.8152403e-16
0.00010423666
1.8696264e-15
0.00010423666
-7.7285145e-16
0.00010423666
7.278277e-16
0.00010423666
-9.1937478e-16
0.00010423666
1.2582259e-15
0.00010423666
1.6055895e-15
0.00010423666
5.9980532e-15
0.00010423666
6.3992637e-15
0.00010423666
8.3003668e-15
0.00010423666
6.3622089e-15
0.00010423666
6.8621605e-15
0.00010423666
5.4133503e-15
0.00010423666
8.6694494e-15
0.00010423666
9.3309025e-15
0.00010423666
1.1572661e-14
0.00010423666