/*--------------------------------*- C++ -*----------------------------------*\
| =========                 |                                                 |
| \\      /  F ield         | OpenFOAM: The Open Source CFD Toolbox           |
|  \\    /   O peration     | Version:  2206                                  |
|   \\  /    A nd           | Website:  www.openfoam.com                      |
|    \\/     M anipulation  |                                                 |
\*---------------------------------------------------------------------------*/
FoamFile
{
    version     2.0;
    format      ascii;
    arch        "LSB;label=32;scalar=64";
    class       volVectorField;
    location    "1";
    object      U;
}
// * * * * * * * * * * * * * * * * * * * * * * * * * * * * * * * * * * * * * //

dimensions      [0 1 -1 0 0 0 0];

internalField   nonuniform List<vector> 
15000
(
(0.15962853 0.053997677 0)
(0.11557193 0.0064916399 0)
(0.064251361 0.0014144191 0)
(0.055918598 0.00074959922 0)
(0.047595817 0.00028826746 0)
(0.044708799 0.00019884284 0)
(0.042412494 9.0522687e-05 0)
(0.041406637 6.0129631e-05 0)
(0.040707476 2.8981799e-05 0)
(0.04037699 1.8022121e-05 0)
(0.040167797 8.6639962e-06 0)
(0.04006866 4.9968491e-06 0)
(0.040011054 2.2680497e-06 0)
(0.039985308 1.1738733e-06 0)
(0.039971973 4.4658396e-07 0)
(0.039967049 1.7376188e-07 0)
(0.03996518 1.3987954e-08 0)
(0.039965128 -3.0264511e-08 0)
(0.039965544 -4.8698843e-08 0)
(0.039966152 -4.3228069e-08 0)
(0.03996668 -3.5693877e-08 0)
(0.039967111 -2.5965898e-08 0)
(0.039967422 -1.8469438e-08 0)
(0.039967642 -1.2381251e-08 0)
(0.03996779 -8.1229086e-09 0)
(0.039967887 -5.0229066e-09 0)
(0.039967949 -2.884497e-09 0)
(0.039967988 -1.3922744e-09 0)
(0.039968012 -3.9543226e-10 0)
(0.039968026 2.1813771e-10 0)
(0.039968035 5.4362071e-10 0)
(0.03996804 6.3558412e-10 0)
(0.039968043 5.5883554e-10 0)
(0.039968044 3.6747491e-10 0)
(0.039968045 1.6630295e-10 0)
(0.039968046 2.9014191e-11 0)
(0.039968046 -6.9243413e-11 0)
(0.039968046 -1.207408e-10 0)
(0.039968046 -1.2412262e-10 0)
(0.039968046 -1.0187714e-10 0)
(0.039968046 -6.8526346e-11 0)
(0.039968046 -3.620768e-11 0)
(0.039968046 -1.4010048e-11 0)
(0.039968046 1.7229827e-12 0)
(0.039968046 1.3011428e-11 0)
(0.039968046 1.9427194e-11 0)
(0.039968046 1.9965617e-11 0)
(0.039968046 1.4433382e-11 0)
(0.039968046 7.5629553e-12 0)
(0.039968046 1.6735321e-12 0)
(0.039968046 -2.6197039e-12 0)
(0.039968046 -3.7054975e-12 0)
(0.039968046 -2.6136048e-12 0)
(0.039968046 -9.9633007e-13 0)
(0.039968046 7.6197338e-13 0)
(0.039968046 1.8392565e-12 0)
(0.039968046 1.7486141e-12 0)
(0.039968046 9.1021226e-13 0)
(0.039968046 1.5509146e-13 0)
(0.039968046 -5.5559001e-13 0)
(0.039968046 -5.9820439e-13 0)
(0.039968046 -6.8865089e-13 0)
(0.039968046 -4.6002344e-13 0)
(0.039968046 -4.7443986e-13 0)
(0.039968046 -3.501678e-13 0)
(0.039968046 -5.881993e-13 0)
(0.039968046 -7.3570944e-13 0)
(0.039968046 -9.1812275e-13 0)
(0.039968046 -8.6022649e-13 0)
(0.039968046 -7.4745744e-13 0)
(0.039968046 -2.9931309e-13 0)
(0.039968046 -1.6866594e-13 0)
(0.039968046 5.9980751e-14 0)
(0.039968046 -8.4730369e-14 0)
(0.039968046 -1.1368322e-13 0)
(0.039968046 -2.9095094e-13 0)
(0.039968046 -2.4767027e-13 0)
(0.039968046 -3.9262421e-13 0)
(0.039968046 -3.7996772e-13 0)
(0.039968046 -4.405623e-13 0)
(0.039968046 -2.8044619e-13 0)
(0.039968046 -2.6133892e-13 0)
(0.039968046 -1.6569976e-13 0)
(0.039968046 -2.0917745e-13 0)
(0.039968046 -2.9979985e-14 0)
(0.039968046 1.2472326e-13 0)
(0.039968046 2.7232443e-13 0)
(0.039968046 1.0550588e-13 0)
(0.039968046 -1.269179e-13 0)
(0.039968046 -3.5851626e-13 0)
(0.039968046 -3.6140746e-13 0)
(0.039968046 -3.4671856e-13 0)
(0.039968046 -3.3888964e-13 0)
(0.039968046 -5.5574588e-13 0)
(0.039968046 -6.1846669e-13 0)
(0.039968046 -5.8573708e-13 0)
(0.039968046 -4.0519825e-13 0)
(0.039968046 -1.0404276e-13 0)
(0.039968046 1.234084e-13 0)
(0.039968046 5.5552326e-13 0)
(0.039968046 8.5218898e-13 0)
(0.039968046 9.9439389e-13 0)
(0.039968046 7.5942705e-13 0)
(0.039968046 4.0760477e-14 0)
(0.039968046 -5.4501756e-13 0)
(0.039968046 -9.4991526e-13 0)
(0.039968046 -9.6287889e-13 0)
(0.039968046 -1.0695825e-12 0)
(0.039968046 -1.2162572e-12 0)
(0.039968046 -1.5792102e-12 0)
(0.039968046 -1.7551608e-12 0)
(0.039968046 -1.5705149e-12 0)
(0.039968046 -8.7439917e-13 0)
(0.039968046 -1.9298879e-13 0)
(0.039968046 8.0577488e-13 0)
(0.039968046 1.1014866e-12 0)
(0.039968046 1.5399034e-12 0)
(0.039968046 1.2200355e-12 0)
(0.039968046 1.2252329e-12 0)
(0.039968046 8.0889596e-13 0)
(0.039968046 9.2598489e-13 0)
(0.039968046 7.8423947e-13 0)
(0.039968046 1.0335539e-12 0)
(0.039968046 8.7301215e-13 0)
(0.039968046 9.2113962e-13 0)
(0.039968046 4.7516473e-13 0)
(0.039968046 3.217308e-13 0)
(0.039968046 -1.7482916e-13 0)
(0.039968046 -3.0737251e-13 0)
(0.039968046 -6.6291814e-13 0)
(0.039968046 -2.6351054e-13 0)
(0.039968046 -1.6269732e-13 0)
(0.039968046 2.1552403e-13 0)
(0.039968046 3.4667961e-14 0)
(0.039968046 3.5558032e-13 0)
(0.039968046 3.131252e-13 0)
(0.039968046 6.7345287e-13 0)
(0.039968046 4.1082284e-13 0)
(0.039968046 4.9544352e-13 0)
(0.039968046 -6.8129173e-14 0)
(0.039968046 -7.5087755e-14 0)
(0.039968046 -6.7986312e-13 0)
(0.039968046 -5.7482524e-13 0)
(0.039968046 -9.8742024e-13 0)
(0.039968046 -4.8897773e-13 0)
(0.039968046 -5.2021471e-13 0)
(0.039968046 1.6530431e-13 0)
(0.039968046 4.9911872e-13 0)
(0.039968046 1.1882435e-12 0)
(0.039968046 1.6007696e-12 0)
(0.039968046 1.8475751e-12 0)
(0.039968046 1.27775e-12 0)
(0.039968046 1.0678925e-12 0)
(0.039968046 -8.8708441e-14 0)
(0.039968046 -5.1013593e-13 0)
(0.039968046 -1.3596735e-12 0)
(0.039968046 -1.4319484e-12 0)
(0.039968046 -2.1360775e-12 0)
(0.039968046 -2.5174868e-12 0)
(0.039968046 -3.1496453e-12 0)
(0.039968046 -2.9891612e-12 0)
(0.039968046 -1.8066758e-12 0)
(0.039968046 -2.4771902e-13 0)
(0.039968046 8.5234601e-13 0)
(0.039968046 2.037176e-12 0)
(0.039968047 2.4618117e-12 0)
(0.039968047 3.9096612e-12 0)
(0.039968047 4.5546987e-12 0)
(0.039968047 5.8129542e-12 0)
(0.039968047 5.6988068e-12 0)
(0.039968047 5.9256313e-12 0)
(0.039968047 4.3397734e-12 0)
(0.039968047 3.8801474e-12 0)
(0.039968047 2.5040819e-12 0)
(0.039968047 3.5574126e-12 0)
(0.039968047 3.2797564e-12 0)
(0.039968047 5.1726177e-12 0)
(0.039968047 4.4839912e-12 0)
(0.039968047 6.886952e-12 0)
(0.039968047 8.5304762e-12 0)
(0.039968047 1.4907482e-11 0)
(0.039968047 1.7051765e-11 0)
(0.039968047 1.8345683e-11 0)
(0.039968047 1.2797674e-11 0)
(0.039968047 9.6934807e-12 0)
(0.039968047 4.246063e-12 0)
(0.039968047 5.244231e-12 0)
(0.039968047 3.099885e-12 0)
(0.039968047 6.924106e-12 0)
(0.039968047 5.4760046e-12 0)
(0.039968047 1.1858806e-11 0)
(0.039968048 9.8579358e-12 0)
(0.039968048 1.5163131e-11 0)
(0.039968048 9.3523116e-12 0)
(0.039968048 1.3439296e-11 0)
(0.039968048 3.1165916e-12 0)
(0.039968048 2.7716799e-12 0)
(0.039968048 -1.0295929e-11 0)
(0.039968048 -9.1237758e-12 0)
(0.039968048 -1.4147004e-11 0)
(0.039968048 -8.4549554e-12 0)
(0.039968048 -1.2496653e-11 0)
(0.039968048 -7.493638e-12 0)
(0.039968048 -1.3522698e-11 0)
(0.039968047 -8.6624523e-12 0)
(0.039968047 -1.2028979e-11 0)
(0.039968047 -6.1679421e-12 0)
(0.039968047 -4.8951445e-12 0)
(0.039968047 -2.4432153e-13 0)
(0.039968047 -5.0671996e-12 0)
(0.039968047 -1.144198e-11 0)
(0.039968047 -2.0331881e-11 0)
(0.039968047 -2.1420848e-11 0)
(0.039968046 -1.6947649e-11 0)
(0.039968046 -1.2387056e-11 0)
(0.039968046 -8.33858e-12 0)
(0.039968046 -8.9358715e-12 0)
(0.039968046 -4.8345987e-12 0)
(0.039968046 -4.0073536e-12 0)
(0.039968046 1.4876341e-12 0)
(0.039968046 -4.1709165e-13 0)
(0.039968046 7.5474805e-13 0)
(0.039968045 -5.2862766e-12 0)
(0.039968045 -3.7336407e-12 0)
(0.039968045 -7.0894218e-12 0)
(0.039968045 -3.1634476e-12 0)
(0.039968045 -7.8195903e-12 0)
(0.039968045 -2.4746781e-12 0)
(0.039968045 -2.206523e-12 0)
(0.039968045 7.6963203e-12 0)
(0.039968045 8.6175819e-12 0)
(0.039968045 1.358345e-11 0)
(0.039968045 6.0782571e-12 0)
(0.039968046 3.0079599e-12 0)
(0.039968046 -7.5820684e-12 0)
(0.039968046 -9.2865771e-12 0)
(0.039968046 -1.5964271e-11 0)
(0.039968046 -1.2452253e-11 0)
(0.039968046 -1.2936011e-11 0)
(0.039968046 -5.5057187e-12 0)
(0.039968046 -3.2759851e-12 0)
(0.039968046 5.1929165e-12 0)
(0.039968046 7.3545669e-12 0)
(0.039968046 1.4497988e-11 0)
(0.039968046 1.429001e-11 0)
(0.039968046 1.7578657e-11 0)
(0.039968046 1.2616469e-11 0)
(0.039968046 1.1047315e-11 0)
(0.039968046 4.1567043e-12 0)
(0.039968046 4.737787e-13 0)
(0.039968046 -4.6764036e-12 0)
(0.039968046 -2.8864562e-12 0)
(0.039968046 2.7087028e-12 0)
(0.039968046 1.0874423e-11 0)
(0.039968046 1.7519285e-11 0)
(0.039968047 1.3319781e-11 0)
(0.039968047 5.910289e-12 0)
(0.039968047 -5.9225254e-12 0)
(0.039968047 -1.0008854e-11 0)
(0.039968047 -1.2325212e-11 0)
(0.039968047 -5.811892e-12 0)
(0.039968047 2.5354782e-13 0)
(0.039968047 1.032892e-11 0)
(0.039968047 1.4035325e-11 0)
(0.039968047 1.9390473e-11 0)
(0.039968047 1.371654e-11 0)
(0.039968047 1.2218991e-11 0)
(0.039968047 1.5243926e-12 0)
(0.039968047 -1.1953493e-12 0)
(0.039968047 -8.2651817e-12 0)
(0.039968047 -5.9340059e-12 0)
(0.039968047 -8.647424e-12 0)
(0.039968048 1.9593736e-13 0)
(0.039968048 -1.8277573e-13 0)
(0.039968048 6.6055207e-12 0)
(0.039968048 4.2283782e-12 0)
(0.039968048 7.8082375e-12 0)
(0.039968047 -2.9090551e-12 0)
(0.039968047 -6.0171479e-12 0)
(0.039968047 -1.4724106e-11 0)
(0.039968047 -8.8691766e-12 0)
(0.039968047 -3.4024737e-14 0)
(0.039968047 3.4190997e-12 0)
(0.039968047 1.9695765e-11 0)
(0.039968047 8.9057736e-12 0)
(0.039968047 3.1582803e-11 0)
(0.039968047 -4.1153492e-12 0)
(0.039968047 3.2947512e-11 0)
(0.039968047 -2.0501823e-12 0)
(0.039968047 -1.659995e-11 0)
(0.039968046 -9.0970201e-11 0)
(0.039968046 -2.5787353e-10 0)
(0.039968046 -2.6570832e-10 0)
(0.039968046 -3.3809988e-10 0)
(0.039968046 -1.1549662e-10 0)
(0.039968048 3.1273017e-10 0)
(0.039968048 2.7983661e-10 0)
(0.039968048 6.7768947e-10 0)
(0.039968048 9.2609016e-10 0)
(0.039968046 5.5815577e-10 0)
(0.36732383 0.14062829 0)
(0.29754389 0.02507938 0)
(0.1860793 0.0083694599 0)
(0.16132807 0.0041218729 0)
(0.13901859 0.001937578 0)
(0.13040448 0.0011770221 0)
(0.12396461 0.00061112879 0)
(0.12095998 0.00037192159 0)
(0.1189454 0.00019727009 0)
(0.11794826 0.00011564599 0)
(0.11733081 6.0264346e-05 0)
(0.11702581 3.3418842e-05 0)
(0.11685066 1.6513537e-05 0)
(0.11676842 8.3934892e-06 0)
(0.1167257 3.6632724e-06 0)
(0.11670834 1.5204569e-06 0)
(0.1167012 3.9896619e-07 0)
(0.11669986 -2.8454324e-08 0)
(0.1167004 -1.992377e-07 0)
(0.11670175 -2.1592199e-07 0)
(0.11670304 -1.9021437e-07 0)
(0.11670415 -1.4585419e-07 0)
(0.11670497 -1.0622782e-07 0)
(0.11670557 -7.3157011e-08 0)
(0.11670597 -4.8906233e-08 0)
(0.11670624 -3.132317e-08 0)
(0.11670642 -1.9177436e-08 0)
(0.11670653 -1.0879e-08 0)
(0.11670659 -5.3908463e-09 0)
(0.11670664 -1.9486036e-09 0)
(0.11670666 4.3677105e-11 0)
(0.11670668 9.7076838e-10 0)
(0.11670668 1.1373738e-09 0)
(0.11670669 8.3090124e-10 0)
(0.11670669 3.7764566e-10 0)
(0.11670669 3.6333127e-11 0)
(0.11670669 -2.2760744e-10 0)
(0.11670669 -3.7426811e-10 0)
(0.11670669 -3.7632368e-10 0)
(0.1167067 -3.0293035e-10 0)
(0.1167067 -2.0519257e-10 0)
(0.1167067 -1.1573955e-10 0)
(0.1167067 -4.929498e-11 0)
(0.1167067 -4.1017932e-13 0)
(0.1167067 3.4880414e-11 0)
(0.1167067 5.4844859e-11 0)
(0.1167067 5.7854403e-11 0)
(0.1167067 4.2732181e-11 0)
(0.1167067 2.2954797e-11 0)
(0.1167067 5.174595e-12 0)
(0.1167067 -7.3691966e-12 0)
(0.1167067 -1.0658269e-11 0)
(0.1167067 -7.6086747e-12 0)
(0.1167067 -2.7899065e-12 0)
(0.1167067 2.5768102e-12 0)
(0.1167067 5.7462852e-12 0)
(0.1167067 5.3914441e-12 0)
(0.1167067 2.8886047e-12 0)
(0.1167067 5.4487631e-13 0)
(0.1167067 -1.5365358e-12 0)
(0.1167067 -1.7291719e-12 0)
(0.1167067 -1.982119e-12 0)
(0.1167067 -1.3163913e-12 0)
(0.1167067 -1.3050311e-12 0)
(0.1167067 -9.4981245e-13 0)
(0.1167067 -1.5865601e-12 0)
(0.1167067 -2.0736572e-12 0)
(0.1167067 -2.5573695e-12 0)
(0.1167067 -2.4357166e-12 0)
(0.1167067 -2.0919591e-12 0)
(0.1167067 -8.4889873e-13 0)
(0.1167067 -4.3375602e-13 0)
(0.1167067 2.1404033e-13 0)
(0.1167067 -1.7730196e-13 0)
(0.1167067 -2.9842454e-13 0)
(0.1167067 -7.9182993e-13 0)
(0.1167067 -6.9635977e-13 0)
(0.1167067 -1.0931041e-12 0)
(0.1167067 -1.0894824e-12 0)
(0.1167067 -1.2471435e-12 0)
(0.1167067 -7.9784122e-13 0)
(0.1167067 -7.2904116e-13 0)
(0.1167067 -4.5277244e-13 0)
(0.1167067 -5.5478612e-13 0)
(0.1167067 -2.227013e-14 0)
(0.1167067 4.6555212e-13 0)
(0.1167067 9.1902758e-13 0)
(0.1167067 4.2002154e-13 0)
(0.1167067 -2.7897657e-13 0)
(0.1167067 -9.9572196e-13 0)
(0.1167067 -1.0235342e-12 0)
(0.1167067 -9.4168121e-13 0)
(0.1167067 -9.6206244e-13 0)
(0.1167067 -1.5398121e-12 0)
(0.1167067 -1.7674838e-12 0)
(0.1167067 -1.6322017e-12 0)
(0.1167067 -1.1065062e-12 0)
(0.1167067 -2.4763375e-13 0)
(0.1167067 4.7741028e-13 0)
(0.1167067 1.6538905e-12 0)
(0.1167067 2.5685647e-12 0)
(0.1167067 3.0136328e-12 0)
(0.1167067 2.2640016e-12 0)
(0.1167067 1.9536042e-13 0)
(0.1167067 -1.6144509e-12 0)
(0.1167067 -2.8162353e-12 0)
(0.1167067 -2.8939279e-12 0)
(0.1167067 -3.1824876e-12 0)
(0.1167067 -3.7326107e-12 0)
(0.1167067 -4.8330502e-12 0)
(0.1167067 -5.4229009e-12 0)
(0.1167067 -4.7985104e-12 0)
(0.1167067 -2.6825863e-12 0)
(0.1167067 -6.1864865e-13 0)
(0.1167067 2.1413728e-12 0)
(0.1167067 3.1774052e-12 0)
(0.1167067 4.2870287e-12 0)
(0.1167067 3.4803148e-12 0)
(0.1167067 3.4108389e-12 0)
(0.1167067 2.2673482e-12 0)
(0.1167067 2.536069e-12 0)
(0.1167067 2.1747649e-12 0)
(0.1167067 2.8634024e-12 0)
(0.1167067 2.5191504e-12 0)
(0.1167067 2.6351513e-12 0)
(0.1167067 1.4188034e-12 0)
(0.1167067 9.1577675e-13 0)
(0.1167067 -4.3586465e-13 0)
(0.1167067 -9.2349839e-13 0)
(0.1167067 -1.8820979e-12 0)
(0.1167067 -8.1288998e-13 0)
(0.1167067 -4.0685055e-13 0)
(0.1167067 6.2921738e-13 0)
(0.1167067 1.9449236e-13 0)
(0.1167067 1.050459e-12 0)
(0.1167067 1.0189783e-12 0)
(0.1167067 2.0114697e-12 0)
(0.1167067 1.3162485e-12 0)
(0.1167067 1.4576993e-12 0)
(0.1167067 -1.0033244e-13 0)
(0.1167067 -2.828878e-13 0)
(0.1167067 -1.8975723e-12 0)
(0.1167067 -1.7949389e-12 0)
(0.1167067 -2.7807116e-12 0)
(0.1167067 -1.5112456e-12 0)
(0.1167067 -1.3833566e-12 0)
(0.1167067 5.342179e-13 0)
(0.1167067 1.5847358e-12 0)
(0.1167067 3.6052508e-12 0)
(0.1167067 4.6827991e-12 0)
(0.1167067 5.4432696e-12 0)
(0.1167067 3.9214259e-12 0)
(0.1167067 3.1004963e-12 0)
(0.1167067 -5.6483758e-14 0)
(0.1167067 -1.5049098e-12 0)
(0.1167067 -3.9057858e-12 0)
(0.1167067 -4.2569666e-12 0)
(0.1167067 -6.1928224e-12 0)
(0.1167067 -7.6117112e-12 0)
(0.1167067 -9.5349369e-12 0)
(0.1167067 -9.1488284e-12 0)
(0.1167067 -5.7152478e-12 0)
(0.1167067 -9.9268854e-13 0)
(0.1167067 2.3466959e-12 0)
(0.1167067 5.5574502e-12 0)
(0.1167067 6.889444e-12 0)
(0.1167067 1.0932803e-11 0)
(0.1167067 1.286201e-11 0)
(0.1167067 1.6347527e-11 0)
(0.1167067 1.6085371e-11 0)
(0.1167067 1.6462033e-11 0)
(0.1167067 1.1930422e-11 0)
(0.1167067 1.0055395e-11 0)
(0.1167067 6.2585118e-12 0)
(0.1167067 8.696234e-12 0)
(0.1167067 8.1365191e-12 0)
(0.1167067 1.2825515e-11 0)
(0.1167067 1.100635e-11 0)
(0.1167067 1.7086189e-11 0)
(0.1167067 2.2239166e-11 0)
(0.1167067 4.0438985e-11 0)
(0.1167067 4.7903664e-11 0)
(0.1167067 5.2055481e-11 0)
(0.1167067 3.6626261e-11 0)
(0.1167067 2.6644115e-11 0)
(0.1167067 1.1320692e-11 0)
(0.1167067 1.301782e-11 0)
(0.1167067 7.1339018e-12 0)
(0.1167067 1.7046573e-11 0)
(0.1167067 1.3440639e-11 0)
(0.1167067 2.9961313e-11 0)
(0.1167067 2.5495335e-11 0)
(0.1167067 3.8888248e-11 0)
(0.1167067 2.3698757e-11 0)
(0.1167067 3.3264717e-11 0)
(0.1167067 7.2850141e-12 0)
(0.1167067 3.9460308e-12 0)
(0.1167067 -3.1456491e-11 0)
(0.1167067 -2.9571011e-11 0)
(0.1167067 -4.0694339e-11 0)
(0.1167067 -2.2658444e-11 0)
(0.1167067 -3.0430085e-11 0)
(0.1167067 -1.6033099e-11 0)
(0.1167067 -3.0276796e-11 0)
(0.1167067 -1.77969e-11 0)
(0.1167067 -2.6229922e-11 0)
(0.1167067 -1.0893075e-11 0)
(0.1167067 -6.7567823e-12 0)
(0.1167067 5.9212666e-12 0)
(0.1167067 -7.0744949e-12 0)
(0.1167067 -2.7271133e-11 0)
(0.1167067 -5.3395866e-11 0)
(0.1167067 -5.7695113e-11 0)
(0.1167067 -4.5621239e-11 0)
(0.1167067 -3.174773e-11 0)
(0.1167067 -2.0468871e-11 0)
(0.11670669 -2.0336837e-11 0)
(0.11670669 -9.062009e-12 0)
(0.11670669 -5.572939e-12 0)
(0.11670669 9.8266154e-12 0)
(0.11670669 5.8452305e-12 0)
(0.11670669 8.2224891e-12 0)
(0.11670669 -8.4944186e-12 0)
(0.11670669 -6.8407961e-12 0)
(0.11670669 -1.7405691e-11 0)
(0.11670669 -9.6301804e-12 0)
(0.11670669 -2.3022048e-11 0)
(0.11670669 -1.0328167e-11 0)
(0.11670669 -8.5944193e-12 0)
(0.11670669 1.8401558e-11 0)
(0.11670669 2.2721149e-11 0)
(0.11670669 3.6070734e-11 0)
(0.11670669 1.6220975e-11 0)
(0.11670669 6.2384816e-12 0)
(0.11670669 -2.3278419e-11 0)
(0.11670669 -3.141295e-11 0)
(0.11670669 -4.8314014e-11 0)
(0.11670669 -3.9525169e-11 0)
(0.11670669 -3.964677e-11 0)
(0.11670669 -1.8880648e-11 0)
(0.11670669 -1.0575825e-11 0)
(0.11670669 1.318516e-11 0)
(0.11670669 2.0472897e-11 0)
(0.11670669 4.0414879e-11 0)
(0.11670669 4.0995095e-11 0)
(0.11670669 4.9941178e-11 0)
(0.11670669 3.6701611e-11 0)
(0.11670669 3.0550621e-11 0)
(0.11670669 8.9906419e-12 0)
(0.11670669 -3.4716121e-12 0)
(0.11670669 -1.9043878e-11 0)
(0.1167067 -1.5290567e-11 0)
(0.1167067 1.2358835e-12 0)
(0.1167067 2.551046e-11 0)
(0.1167067 4.6344073e-11 0)
(0.1167067 3.626903e-11 0)
(0.1167067 1.3744255e-11 0)
(0.1167067 -1.9462716e-11 0)
(0.1167067 -3.314193e-11 0)
(0.1167067 -3.9143616e-11 0)
(0.1167067 -2.0693713e-11 0)
(0.1167067 -2.7701181e-12 0)
(0.1167067 2.653342e-11 0)
(0.1167067 3.7434243e-11 0)
(0.1167067 5.2030599e-11 0)
(0.1167067 3.7732525e-11 0)
(0.1167067 3.1587272e-11 0)
(0.1167067 1.5933151e-12 0)
(0.1167067 -8.3929971e-12 0)
(0.1167067 -2.8117484e-11 0)
(0.1167067 -2.3430142e-11 0)
(0.1167067 -2.9400603e-11 0)
(0.1167067 -5.9232947e-12 0)
(0.1167067 -4.1599408e-12 0)
(0.1167067 1.6531916e-11 0)
(0.1167067 1.3452664e-11 0)
(0.1167067 2.3927359e-11 0)
(0.1167067 -4.1055382e-12 0)
(0.1167067 -1.4050369e-11 0)
(0.1167067 -3.8035393e-11 0)
(0.1167067 -2.1095474e-11 0)
(0.1167067 1.6513929e-12 0)
(0.1167067 1.7603547e-11 0)
(0.1167067 5.5120383e-11 0)
(0.1167067 4.3458859e-11 0)
(0.1167067 8.5832554e-11 0)
(0.1167067 1.5412135e-11 0)
(0.1167067 8.7991969e-11 0)
(0.1167067 8.0163041e-12 0)
(0.1167067 -6.7514928e-11 0)
(0.1167067 -3.0843877e-10 0)
(0.11670669 -7.4370304e-10 0)
(0.11670669 -8.2540143e-10 0)
(0.11670669 -8.9863546e-10 0)
(0.1167067 -2.3698816e-10 0)
(0.1167067 9.1450581e-10 0)
(0.1167067 9.5986429e-10 0)
(0.1167067 1.7606227e-09 0)
(0.1167067 2.6618249e-09 0)
(0.1167067 1.7293824e-09 0)
(0.50390834 0.19019021 0)
(0.43847039 0.050431499 0)
(0.29767008 0.02205531 0)
(0.25944374 0.010780095 0)
(0.22598939 0.005562136 0)
(0.21213187 0.0032307969 0)
(0.20205719 0.0017732902 0)
(0.19716897 0.0010457409 0)
(0.19394744 0.00057679864 0)
(0.19230772 0.00033133802 0)
(0.19130242 0.0001783328 0)
(0.19079327 9.7729032e-05 0)
(0.19050201 4.9924111e-05 0)
(0.1903612 2.5326597e-05 0)
(0.19028763 1.1619395e-05 0)
(0.19025609 4.9679299e-06 0)
(0.1902425 1.5954874e-06 0)
(0.19023894 1.7280087e-07 0)
(0.19023899 -4.0019776e-07 0)
(0.19024063 -5.2263958e-07 0)
(0.19024241 -4.8490995e-07 0)
(0.19024402 -3.8474347e-07 0)
(0.19024524 -2.8480785e-07 0)
(0.19024615 -1.9928878e-07 0)
(0.19024677 -1.3478126e-07 0)
(0.19024719 -8.7956262e-08 0)
(0.19024746 -5.5563931e-08 0)
(0.19024763 -3.3625692e-08 0)
(0.19024774 -1.9178617e-08 0)
(0.1902478 -9.9949275e-09 0)
(0.19024784 -4.4073005e-09 0)
(0.19024787 -1.3089279e-09 0)
(0.19024788 7.8549663e-11 0)
(0.19024789 4.0331312e-10 0)
(0.19024789 2.2079803e-10 0)
(0.1902479 -3.7529533e-11 0)
(0.1902479 -3.1065907e-10 0)
(0.1902479 -4.9803577e-10 0)
(0.1902479 -5.0976947e-10 0)
(0.1902479 -4.2274142e-10 0)
(0.1902479 -3.066041e-10 0)
(0.1902479 -1.9398676e-10 0)
(0.1902479 -9.7748298e-11 0)
(0.1902479 -2.4918974e-11 0)
(0.1902479 2.9238253e-11 0)
(0.1902479 6.2045116e-11 0)
(0.1902479 7.2843269e-11 0)
(0.1902479 5.8457461e-11 0)
(0.1902479 3.4379481e-11 0)
(0.1902479 1.0469757e-11 0)
(0.1902479 -7.4370632e-12 0)
(0.1902479 -1.3005775e-11 0)
(0.1902479 -9.9407729e-12 0)
(0.1902479 -3.8729446e-12 0)
(0.1902479 3.4977223e-12 0)
(0.1902479 8.2868089e-12 0)
(0.1902479 8.4296024e-12 0)
(0.1902479 5.2705079e-12 0)
(0.1902479 1.9892401e-12 0)
(0.1902479 -1.1277203e-12 0)
(0.1902479 -1.6397658e-12 0)
(0.1902479 -2.1761249e-12 0)
(0.1902479 -1.2502928e-12 0)
(0.1902479 -1.1250199e-12 0)
(0.1902479 -4.2660328e-13 0)
(0.1902479 -1.1878417e-12 0)
(0.1902479 -1.8830264e-12 0)
(0.1902479 -2.6910369e-12 0)
(0.1902479 -2.6988461e-12 0)
(0.1902479 -2.4531532e-12 0)
(0.1902479 -8.7860932e-13 0)
(0.1902479 -3.7327414e-13 0)
(0.1902479 5.6911675e-13 0)
(0.1902479 7.9457173e-14 0)
(0.1902479 -9.2817533e-15 0)
(0.1902479 -6.693493e-13 0)
(0.1902479 -5.3005263e-13 0)
(0.1902479 -1.0898523e-12 0)
(0.1902479 -1.0754805e-12 0)
(0.1902479 -1.2897469e-12 0)
(0.1902479 -6.260523e-13 0)
(0.1902479 -5.0636551e-13 0)
(0.1902479 -4.296205e-14 0)
(0.1902479 -1.3578943e-13 0)
(0.1902479 6.8392195e-13 0)
(0.1902479 1.4417946e-12 0)
(0.1902479 2.2085554e-12 0)
(0.1902479 1.5403696e-12 0)
(0.1902479 5.2766983e-13 0)
(0.1902479 -6.490913e-13 0)
(0.1902479 -8.800816e-13 0)
(0.1902479 -9.4135466e-13 0)
(0.1902479 -9.6632521e-13 0)
(0.1902479 -1.7165012e-12 0)
(0.1902479 -1.9561656e-12 0)
(0.1902479 -1.7053922e-12 0)
(0.1902479 -9.0960033e-13 0)
(0.1902479 3.1062995e-13 0)
(0.1902479 1.4032495e-12 0)
(0.1902479 3.0863879e-12 0)
(0.1902479 4.4276758e-12 0)
(0.1902479 5.0631391e-12 0)
(0.1902479 3.9604256e-12 0)
(0.1902479 9.291766e-13 0)
(0.1902479 -1.7903121e-12 0)
(0.1902479 -3.7252391e-12 0)
(0.1902479 -4.0202681e-12 0)
(0.1902479 -4.5059676e-12 0)
(0.1902479 -5.2415105e-12 0)
(0.1902479 -6.9011139e-12 0)
(0.1902479 -8.1548377e-12 0)
(0.1902479 -7.6699477e-12 0)
(0.1902479 -4.9173494e-12 0)
(0.1902479 -2.1169487e-12 0)
(0.1902479 1.7044985e-12 0)
(0.1902479 3.2828596e-12 0)
(0.1902479 4.8757525e-12 0)
(0.1902479 3.926644e-12 0)
(0.1902479 3.955481e-12 0)
(0.1902479 2.4383793e-12 0)
(0.1902479 2.8682849e-12 0)
(0.1902479 2.332634e-12 0)
(0.1902479 3.3306875e-12 0)
(0.1902479 3.0331318e-12 0)
(0.1902479 3.5854174e-12 0)
(0.1902479 2.3030893e-12 0)
(0.1902479 1.8887356e-12 0)
(0.1902479 2.03332e-13 0)
(0.1902479 -3.4767262e-13 0)
(0.1902479 -1.5513832e-12 0)
(0.1902479 -7.2483652e-14 0)
(0.1902479 4.8227015e-13 0)
(0.1902479 1.8391895e-12 0)
(0.1902479 1.2077869e-12 0)
(0.1902479 2.3848509e-12 0)
(0.1902479 2.2629095e-12 0)
(0.1902479 3.6309126e-12 0)
(0.1902479 2.5937224e-12 0)
(0.1902479 2.7733752e-12 0)
(0.1902479 5.1664656e-13 0)
(0.1902479 1.8589755e-13 0)
(0.1902479 -2.1380459e-12 0)
(0.1902479 -2.0531107e-12 0)
(0.1902479 -3.4204996e-12 0)
(0.1902479 -1.6409841e-12 0)
(0.1902479 -1.3816938e-12 0)
(0.1902479 1.4319293e-12 0)
(0.1902479 3.0505705e-12 0)
(0.1902479 6.0236698e-12 0)
(0.1902479 7.6126815e-12 0)
(0.1902479 8.8716333e-12 0)
(0.1902479 6.9230188e-12 0)
(0.1902479 5.7872192e-12 0)
(0.1902479 1.344935e-12 0)
(0.1902479 -8.4147657e-13 0)
(0.1902479 -4.3915388e-12 0)
(0.1902479 -5.1429472e-12 0)
(0.1902479 -7.8066953e-12 0)
(0.1902479 -9.7281936e-12 0)
(0.1902479 -1.2749796e-11 0)
(0.1902479 -1.2905194e-11 0)
(0.1902479 -8.9750156e-12 0)
(0.1902479 -2.5540147e-12 0)
(0.1902479 2.1137192e-12 0)
(0.1902479 6.6054713e-12 0)
(0.1902479 8.6848253e-12 0)
(0.1902479 1.4392454e-11 0)
(0.1902479 1.7236156e-11 0)
(0.1902479 2.1970814e-11 0)
(0.1902479 2.1646026e-11 0)
(0.1902479 2.2073608e-11 0)
(0.1902479 1.5834028e-11 0)
(0.1902479 1.3054411e-11 0)
(0.1902479 7.5951897e-12 0)
(0.1902479 1.04839e-11 0)
(0.1902479 8.8910214e-12 0)
(0.1902479 1.4852121e-11 0)
(0.1902479 1.173119e-11 0)
(0.1902479 1.9815369e-11 0)
(0.1902479 2.6131099e-11 0)
(0.1902479 5.0700653e-11 0)
(0.1902479 6.2472724e-11 0)
(0.1902479 7.2415794e-11 0)
(0.1902479 5.4966607e-11 0)
(0.1902479 4.3286269e-11 0)
(0.1902479 2.226833e-11 0)
(0.1902479 2.3503555e-11 0)
(0.1902479 1.3857482e-11 0)
(0.1902479 2.6241086e-11 0)
(0.1902479 1.9838084e-11 0)
(0.1902479 4.0513943e-11 0)
(0.1902479 3.3167596e-11 0)
(0.1902479 5.0222082e-11 0)
(0.1902479 2.9459547e-11 0)
(0.1902479 4.2491931e-11 0)
(0.1902479 1.1100136e-11 0)
(0.1902479 9.7713101e-12 0)
(0.1902479 -3.7022765e-11 0)
(0.1902479 -3.7564006e-11 0)
(0.1902479 -5.6481862e-11 0)
(0.1902479 -3.3014441e-11 0)
(0.1902479 -4.2929409e-11 0)
(0.1902479 -2.0928696e-11 0)
(0.1902479 -3.7151721e-11 0)
(0.1902479 -1.8246122e-11 0)
(0.1902479 -2.8520384e-11 0)
(0.1902479 -8.8801219e-12 0)
(0.1902479 -4.8386598e-12 0)
(0.1902479 1.2684524e-11 0)
(0.1902479 -3.3903326e-12 0)
(0.1902479 -2.9106994e-11 0)
(0.1902479 -6.5842155e-11 0)
(0.1902479 -7.5838666e-11 0)
(0.1902479 -6.3459208e-11 0)
(0.1902479 -4.4965981e-11 0)
(0.1902479 -2.8021438e-11 0)
(0.1902479 -2.4577445e-11 0)
(0.1902479 -7.7269966e-12 0)
(0.1902479 -2.9617565e-12 0)
(0.1902479 1.7959303e-11 0)
(0.1902479 1.3223659e-11 0)
(0.1902479 1.8008336e-11 0)
(0.1902479 -3.6479101e-12 0)
(0.1902479 -1.6149952e-12 0)
(0.1902479 -1.6995885e-11 0)
(0.1902479 -8.5305209e-12 0)
(0.1902479 -2.9125038e-11 0)
(0.1902479 -1.5261305e-11 0)
(0.1902479 -1.5847107e-11 0)
(0.1902479 1.9148171e-11 0)
(0.1902479 2.4605785e-11 0)
(0.1902479 4.3711003e-11 0)
(0.1902479 1.8796572e-11 0)
(0.1902479 6.7834524e-12 0)
(0.1902479 -3.3559412e-11 0)
(0.1902479 -4.6228563e-11 0)
(0.1902479 -7.1192589e-11 0)
(0.1902479 -6.037154e-11 0)
(0.1902479 -6.1404295e-11 0)
(0.1902479 -3.2835316e-11 0)
(0.1902479 -2.0437013e-11 0)
(0.1902479 1.3369895e-11 0)
(0.1902479 2.4846015e-11 0)
(0.1902479 5.2573042e-11 0)
(0.1902479 5.3301114e-11 0)
(0.1902479 6.6902698e-11 0)
(0.1902479 5.202817e-11 0)
(0.1902479 4.548698e-11 0)
(0.1902479 1.6013305e-11 0)
(0.1902479 -1.8747243e-12 0)
(0.1902479 -2.505777e-11 0)
(0.1902479 -2.4103627e-11 0)
(0.1902479 -6.2784151e-12 0)
(0.1902479 2.3545153e-11 0)
(0.1902479 5.3304567e-11 0)
(0.1902479 4.4180613e-11 0)
(0.1902479 1.8364378e-11 0)
(0.1902479 -2.5131659e-11 0)
(0.1902479 -4.3521723e-11 0)
(0.1902479 -5.4472885e-11 0)
(0.1902479 -3.2241432e-11 0)
(0.1902479 -1.0264925e-11 0)
(0.1902479 2.8856779e-11 0)
(0.1902479 4.4440471e-11 0)
(0.1902479 6.5297655e-11 0)
(0.1902479 4.9076158e-11 0)
(0.1902479 4.1681917e-11 0)
(0.1902479 6.6359448e-13 0)
(0.1902479 -1.2920012e-11 0)
(0.1902479 -4.0180279e-11 0)
(0.1902479 -3.5230646e-11 0)
(0.1902479 -4.4586272e-11 0)
(0.1902479 -1.6588284e-11 0)
(0.1902479 -1.4978939e-11 0)
(0.1902479 1.4718189e-11 0)
(0.1902479 1.3067632e-11 0)
(0.1902479 3.2792985e-11 0)
(0.1902479 -7.1122984e-13 0)
(0.1902479 -1.2620714e-11 0)
(0.1902479 -4.5174257e-11 0)
(0.1902479 -2.5492257e-11 0)
(0.1902479 3.1591506e-12 0)
(0.1902479 2.446634e-11 0)
(0.1902479 8.0552435e-11 0)
(0.1902479 7.1136949e-11 0)
(0.1902479 1.385686e-10 0)
(0.1902479 5.286205e-11 0)
(0.1902479 1.4532651e-10 0)
(0.1902479 1.1236435e-11 0)
(0.1902479 -1.4001421e-10 0)
(0.1902479 -5.2443571e-10 0)
(0.1902479 -1.1558836e-09 0)
(0.1902479 -1.2424839e-09 0)
(0.1902479 -1.2135148e-09 0)
(0.1902479 -1.8825783e-10 0)
(0.1902479 1.4255019e-09 0)
(0.19024791 1.378494e-09 0)
(0.19024791 2.3631462e-09 0)
(0.19024791 3.3318983e-09 0)
(0.1902479 2.0198652e-09 0)
(0.59346672 0.21467329 0)
(0.54593347 0.0759984 0)
(0.39702192 0.03931229 0)
(0.34953974 0.019720551 0)
(0.30792187 0.01072673 0)
(0.28963523 0.0061583731 0)
(0.27651264 0.0034761827 0)
(0.26994405 0.002029105 0)
(0.26565503 0.001140992 0)
(0.26342423 0.00065140914 0)
(0.26206335 0.00035633577 0)
(0.26136077 0.00019487593 0)
(0.26095907 0.00010129608 0)
(0.26076048 5.1592802e-05 0)
(0.260656 2.4316901e-05 0)
(0.26060945 1.0644266e-05 0)
(0.26058866 3.7605789e-06 0)
(0.26058217 7.1148366e-07 0)
(0.26058122 -5.4277464e-07 0)
(0.26058278 -8.8432464e-07 0)
(0.2605848 -8.6463575e-07 0)
(0.26058673 -7.0568922e-07 0)
(0.26058825 -5.3006581e-07 0)
(0.26058939 -3.7543002e-07 0)
(0.26059018 -2.5622148e-07 0)
(0.26059072 -1.6920615e-07 0)
(0.26059108 -1.0876787e-07 0)
(0.2605913 -6.7900315e-08 0)
(0.26059145 -4.0971031e-08 0)
(0.26059153 -2.3689747e-08 0)
(0.26059159 -1.2870372e-08 0)
(0.26059162 -6.3852494e-09 0)
(0.26059164 -2.7996469e-09 0)
(0.26059165 -1.043251e-09 0)
(0.26059165 -3.6378857e-10 0)
(0.26059166 -1.7964238e-10 0)
(0.26059166 -2.5411469e-10 0)
(0.26059166 -4.0420178e-10 0)
(0.26059166 -4.5026473e-10 0)
(0.26059166 -4.1786952e-10 0)
(0.26059166 -3.4964488e-10 0)
(0.26059166 -2.5870743e-10 0)
(0.26059166 -1.5775993e-10 0)
(0.26059166 -7.7184948e-11 0)
(0.26059166 -1.3656552e-11 0)
(0.26059166 2.9666234e-11 0)
(0.26059166 5.4785642e-11 0)
(0.26059166 5.4937016e-11 0)
(0.26059166 3.9603274e-11 0)
(0.26059166 1.8293303e-11 0)
(0.26059166 -8.7921373e-13 0)
(0.26059166 -8.9617585e-12 0)
(0.26059166 -8.3812922e-12 0)
(0.26059166 -4.1050223e-12 0)
(0.26059166 2.6735317e-12 0)
(0.26059166 8.5679492e-12 0)
(0.26059166 1.0439896e-11 0)
(0.26059166 8.2007958e-12 0)
(0.26059166 5.0289025e-12 0)
(0.26059166 1.329879e-12 0)
(0.26059166 2.7215432e-13 0)
(0.26059166 -7.9157596e-13 0)
(0.26059166 1.4184111e-13 0)
(0.26059166 4.5682471e-13 0)
(0.26059166 1.7098999e-12 0)
(0.26059166 1.2080805e-12 0)
(0.26059166 5.2880458e-13 0)
(0.26059166 -7.5736569e-13 0)
(0.26059166 -1.1692883e-12 0)
(0.26059166 -1.5179878e-12 0)
(0.26059166 -1.9518413e-13 0)
(0.26059166 8.3266949e-14 0)
(0.26059166 1.1856682e-12 0)
(0.26059166 7.7021912e-13 0)
(0.26059166 9.3168032e-13 0)
(0.26059166 2.8717448e-13 0)
(0.26059166 5.0131129e-13 0)
(0.26059166 -1.2386409e-13 0)
(0.26059166 -3.9454682e-14 0)
(0.26059166 -2.5590219e-13 0)
(0.26059166 5.4709912e-13 0)
(0.26059166 7.2726061e-13 0)
(0.26059166 1.3870218e-12 0)
(0.26059166 1.3805581e-12 0)
(0.26059166 2.3877821e-12 0)
(0.26059166 3.3306143e-12 0)
(0.26059166 4.4361641e-12 0)
(0.26059166 3.8492462e-12 0)
(0.26059166 2.7310066e-12 0)
(0.26059166 1.1102996e-12 0)
(0.26059166 3.817301e-13 0)
(0.26059166 -1.7134942e-13 0)
(0.26059166 -1.4979657e-13 0)
(0.26059166 -7.9331117e-13 0)
(0.26059166 -8.0956271e-13 0)
(0.26059166 -3.9774229e-13 0)
(0.26059166 5.5485458e-13 0)
(0.26059166 1.879466e-12 0)