/*--------------------------------*- C++ -*----------------------------------*\
| =========                 |                                                 |
| \\      /  F ield         | OpenFOAM: The Open Source CFD Toolbox           |
|  \\    /   O peration     | Version:  2206                                  |
|   \\  /    A nd           | Website:  www.openfoam.com                      |
|    \\/     M anipulation  |                                                 |
\*---------------------------------------------------------------------------*/
FoamFile
{
    version     2.0;
    format      ascii;
    arch        "LSB;label=32;scalar=64";
    class       surfaceScalarField;
    location    "11";
    object      phi;
}
// * * * * * * * * * * * * * * * * * * * * * * * * * * * * * * * * * * * * * //

dimensions      [0 3 -1 0 0 0 0];

oriented        oriented;

internalField   nonuniform List<scalar> 
29650
(
6.0867649e-05
0.00020579916
3.2718171e-05
2.8149482e-05
2.4599022e-05
8.1191425e-06
2.0417848e-05
4.181159e-06
1.8552178e-05
1.8656551e-06
1.73737e-05
1.1784599e-06
1.6781661e-05
5.9201935e-07
1.6412314e-05
3.6932574e-07
1.622082e-05
1.9147579e-07
1.6106685e-05
1.141214e-07
1.6048257e-05
5.8420883e-08
1.6015473e-05
3.2781673e-08
1.5999541e-05
1.5933231e-08
1.5991376e-05
8.1678116e-09
1.5987889e-05
3.4896203e-09
1.598644e-05
1.4510678e-09
1.5986091e-05
3.5173689e-10
1.5986138e-05
-4.6496147e-11
1.598635e-05
-2.1029308e-10
1.5986569e-05
-2.1955099e-10
1.5986762e-05
-1.9226043e-10
1.5986908e-05
-1.4627463e-10
1.5987014e-05
-1.0640011e-10
1.5987087e-05
-7.3055547e-11
1.5987136e-05
-4.8937455e-11
1.5987167e-05
-3.1675589e-11
1.5987187e-05
-2.0128833e-11
1.59872e-05
-1.2483033e-11
1.5987208e-05
-7.6188332e-12
1.5987212e-05
-4.5509777e-12
1.5987215e-05
-2.6687496e-12
1.5987216e-05
-1.5284976e-12
1.5987217e-05
-8.5824824e-13
1.5987218e-05
-4.7098837e-13
1.5987218e-05
-2.5321218e-13
1.5987218e-05
-1.3131244e-13
1.5987218e-05
-6.4557743e-14
1.5987218e-05
-2.9584002e-14
1.5987218e-05
-1.4110575e-14
1.5987218e-05
-7.1912492e-15
1.5987218e-05
-3.5625248e-15
1.5987218e-05
-5.3312488e-16
1.5987218e-05
9.3785336e-16
1.5987218e-05
9.1958357e-16
1.5987218e-05
-9.6138843e-16
1.5987218e-05
-1.640871e-15
1.5987218e-05
-1.2582608e-15
1.5987218e-05
2.8996649e-16
1.5987218e-05
1.5869327e-15
1.5987218e-05
2.300596e-15
1.5987218e-05
1.6695306e-15
1.5987218e-05
1.2259372e-15
1.5987218e-05
1.8712252e-16
1.5987218e-05
1.9080136e-16
1.5987218e-05
5.423052e-16
1.5987218e-05
1.335158e-15
1.5987218e-05
1.5959369e-15
1.5987218e-05
1.7784827e-15
1.5987218e-05
1.1722206e-15
1.5987218e-05
9.9042173e-16
1.5987218e-05
4.2510229e-16
1.5987218e-05
6.7271094e-16
1.5987218e-05
8.1235928e-16
1.5987218e-05
1.0845813e-15
1.5987218e-05
1.1256052e-15
1.5987218e-05
1.0692e-15
1.5987218e-05
9.8330025e-16
1.5987218e-05
7.3895406e-16
1.5987218e-05
4.4866034e-16
1.5987218e-05
4.2216159e-16
1.5987218e-05
3.7286503e-16
1.5987218e-05
5.7041777e-16
1.5987218e-05
2.7868383e-16
1.5987218e-05
3.7687031e-16
1.5987218e-05
1.9150371e-16
1.5987218e-05
3.3301713e-16
1.5987218e-05
2.0530926e-16
1.5987218e-05
3.2540725e-16
1.5987218e-05
1.8738415e-16
1.5987218e-05
2.3135659e-16
1.5987218e-05
8.0714027e-17
1.5987218e-05
1.0568205e-16
1.5987218e-05
2.7894608e-17
1.5987218e-05
8.0050724e-17
1.5987218e-05
-1.3227665e-18
1.5987218e-05
-7.9608092e-17
1.5987218e-05
-1.1885339e-16
1.5987218e-05
1.1466769e-17
1.5987218e-05
3.316578e-16
1.5987218e-05
4.1625286e-16
1.5987218e-05
-1.5756027e-17
1.5987218e-05
-8.7687547e-16
1.5987218e-05
-1.753739e-15
1.5987218e-05
-2.4062882e-15
1.5987218e-05
-2.3363851e-15
1.5987218e-05
-1.9966596e-15
1.5987218e-05
-1.3122059e-15
1.5987218e-05
-9.4878651e-16
1.5987218e-05
-6.8917754e-16
1.5987218e-05
-5.3544165e-16
1.5987218e-05
-4.6399305e-16
1.5987218e-05
-4.673849e-16
1.5987218e-05
-4.5653627e-16
1.5987218e-05
-3.9896706e-16
1.5987218e-05
-2.9750481e-16
1.5987218e-05
-4.7312133e-16
1.5987218e-05
-1.026933e-15
1.5987218e-05
-1.7695931e-15
1.5987218e-05
-2.3919289e-15
1.5987218e-05
-2.2766972e-15
1.5987218e-05
-1.885059e-15
1.5987218e-05
-7.8388191e-16
1.5987218e-05
-3.5849761e-16
1.5987218e-05
1.1271319e-16
1.5987218e-05
1.1875477e-16
1.5987218e-05
8.8592472e-17
1.5987218e-05
-1.1361514e-16
1.5987218e-05
-1.393953e-16
1.5987218e-05
-2.8884089e-16
1.5987218e-05
-8.152747e-17
1.5987218e-05
-2.2980504e-16
1.5987218e-05
-1.7062621e-17
1.5987218e-05
-3.0194837e-16
1.5987218e-05
-1.2798616e-16
1.5987218e-05
-3.6594455e-16
1.5987218e-05
-1.1619496e-16
1.5987218e-05
-2.4509119e-16
1.5987218e-05
1.8932033e-17
1.5987218e-05
-8.5364534e-17
1.5987218e-05
1.5139959e-16
1.5987218e-05
5.5567371e-17
1.5987218e-05
2.648277e-16
1.5987218e-05
1.729422e-16
1.5987218e-05
3.5262336e-16
1.5987218e-05
2.6783769e-16
1.5987218e-05
4.3185351e-16
1.5987218e-05
3.64512e-16
1.5987218e-05
5.1122257e-16
1.5987218e-05
4.6254239e-16
1.5987218e-05
5.7315749e-16
1.5987218e-05
5.2089916e-16
1.5987218e-05
5.8669584e-16
1.5987218e-05
5.6621733e-16
1.5987218e-05
5.9128952e-16
1.5987218e-05
5.4725556e-16
1.5987218e-05
5.0557757e-16
1.5987218e-05
5.6334519e-16
1.5987218e-05
5.7049969e-16
1.5987218e-05
4.8141515e-16
1.5987218e-05
1.1557686e-16
1.5987218e-05
-6.0564695e-17
1.5987218e-05
4.1889691e-17
1.5987218e-05
9.933351e-16
1.5987218e-05
1.8080083e-15
1.5987218e-05
2.5589713e-15
1.5987218e-05
2.4494776e-15
1.5987218e-05
1.9065253e-15
1.5987218e-05
1.033292e-15
1.5987218e-05
6.0036993e-16
1.5987218e-05
9.136178e-18
1.5987218e-05
-8.8023194e-17
1.5987218e-05
-4.3435865e-16
1.5987218e-05
-4.0688195e-16
1.5987218e-05
-4.9148589e-16
1.5987218e-05
-2.2449136e-16
1.5987218e-05
-2.7700354e-16
1.5987218e-05
-1.1226602e-16
1.5987218e-05
-2.1829888e-16
1.5987218e-05
-1.380417e-16
1.5987218e-05
-3.3877256e-16
1.5987218e-05
-2.9262163e-16
1.5987218e-05
-2.8959111e-16
1.5987218e-05
1.2326356e-16
1.5987218e-05
2.5117859e-16
1.5987218e-05
4.4279096e-17
1.5987218e-05
-7.5908753e-16
1.5987218e-05
-1.5645832e-15
1.5987218e-05
-2.2529504e-15
1.5987218e-05
-2.1484041e-15
1.5987218e-05
-1.7745234e-15
1.5987218e-05
-9.8398487e-16
1.5987218e-05
-5.894404e-16
1.5987218e-05
-2.47852e-16
1.5987218e-05
-2.0382384e-16
1.5987218e-05
-1.6179339e-16
1.5987218e-05
-2.0317433e-16
1.5987218e-05
-2.1938977e-16
1.5987218e-05
-2.7260939e-16
1.5987218e-05
-3.5283784e-16
1.5987218e-05
-3.6201909e-16
1.5987218e-05
-4.0581836e-16
1.5987218e-05
-3.1863323e-16
1.5987218e-05
-3.5621175e-16
1.5987218e-05
-2.5543973e-16
1.5987218e-05
-3.9606196e-16
1.5987218e-05
-3.2120985e-16
1.5987218e-05
-4.2148917e-16
1.5987218e-05
-1.3701217e-16
1.5987218e-05
-4.2839202e-17
1.5987218e-05
2.3827994e-16
1.5987218e-05
8.325217e-17
1.5987218e-05
1.1472746e-16
1.5987218e-05
2.8783393e-16
1.5987218e-05
1.0669306e-15
1.5987218e-05
1.8301281e-15
1.5987218e-05
2.5117449e-15
1.5987218e-05
2.549873e-15
1.5987218e-05
2.14778e-15
1.5987218e-05
1.6057091e-15
1.5987218e-05
1.3370419e-15
1.5987218e-05
1.1654231e-15
1.5987218e-05
8.4903507e-16
1.5987218e-05
1.299048e-16
1.5987218e-05
-8.9646499e-16
1.5987218e-05
-1.9126808e-15
1.5987218e-05
-2.498405e-15
1.5987218e-05
-2.0834921e-15
1.5987218e-05
-1.043314e-15
1.5987218e-05
3.7120135e-16
1.5987218e-05
1.4955733e-15
1.5987218e-05
2.1886335e-15
1.5987218e-05
1.9739796e-15
1.5987218e-05
8.2292805e-16
1.5987218e-05
-3.8206221e-16
1.5987218e-05
-1.6808875e-15
1.5987218e-05
-2.3518435e-15
1.5987218e-05
-2.4078896e-15
1.5987218e-05
-1.8416336e-15
1.5987218e-05
-1.1534033e-15
1.5987218e-05
-7.9908341e-16
1.5987218e-05
-8.7862818e-16
1.5987218e-05
-9.1549896e-16
1.5987218e-05
-4.4640592e-16
1.5987218e-05
4.3338661e-16
1.5987218e-05
1.2763329e-15
1.5987218e-05
1.9012914e-15
1.5987218e-05
1.8573402e-15
1.5987218e-05
1.7041273e-15
1.5987218e-05
1.0252841e-15
1.5987218e-05
4.5358056e-16
1.5987218e-05
-6.3730083e-16
1.5987218e-05
-1.4349416e-15
1.5987218e-05
-1.9131639e-15
1.5987218e-05
-1.8049165e-15
1.5987218e-05
-1.1141856e-15
1.5987218e-05
-4.829853e-16
1.5987218e-05
5.9870073e-17
1.5987218e-05
3.3036681e-16
1.5987218e-05
3.0182931e-16
1.5987218e-05
-2.5834438e-18
1.5987218e-05
-2.4668823e-16
1.5987218e-05
-2.1502722e-16
1.5987218e-05
5.2428e-16
1.5987218e-05
1.4050068e-15
1.5987218e-05
2.4013626e-15
1.5987218e-05
2.5244969e-15
1.5987218e-05
1.6842016e-15
1.5987218e-05
3.236416e-16
1.5987218e-05
-1.0234639e-15
1.5987218e-05
-1.9072426e-15
1.5987218e-05
-1.9541268e-15
1.5987218e-05
-1.5051655e-15
1.5987218e-05
-8.3063665e-16
1.5987218e-05
-4.3583839e-16
1.5987218e-05
-1.4794107e-16
1.5987218e-05
-1.3184356e-17
1.5987218e-05
5.2335216e-18
1.5987218e-05
-2.1235994e-16
1.5987218e-05
-6.6329416e-16
1.5987218e-05
-9.2413401e-16
1.5987218e-05
-7.142685e-16
1.5987218e-05
7.1170538e-17
1.5987218e-05
9.8702829e-16
1.5987218e-05
1.7018809e-15
1.5987218e-05
1.8102446e-15
1.5987218e-05
1.456706e-15
1.5987218e-05
6.5812212e-16
1.5987218e-05
1.5312214e-16
1.5987218e-05
-1.2997385e-16
1.5987218e-05
1.4534014e-17
1.5987218e-05
4.502916e-16
1.5987218e-05
7.3080192e-16
1.5987218e-05
4.0397051e-16
1.5987218e-05
-3.9303781e-16
1.5987218e-05
-1.2708918e-15
1.5987218e-05
-1.8631362e-15
1.5987218e-05
-1.60972e-15
1.5987218e-05
-1.0398277e-15
1.5987218e-05
-2.4578662e-16
1.5987218e-05
1.3970872e-16
1.5987218e-05
3.5638817e-16
1.5987218e-05
2.4240935e-16
1.5987218e-05
1.828946e-16
1.5987218e-05
2.3500259e-16
1.5987218e-05
3.9371134e-16
1.5987218e-05
-1.0383199e-17
1.5987218e-05
-6.7219784e-16
1.5987218e-05
-5.1154849e-16
1.5987218e-05
1.2020563e-15
1.4637596e-15
0.00014027132
0.00033219464
9.2549245e-05
7.5871569e-05
7.0338073e-05
3.0330324e-05
5.9620313e-05
1.4898924e-05
5.4019642e-05
7.4663246e-06
5.0795343e-05
4.4027519e-06
4.901105e-05
2.3763044e-06
4.7964745e-05
1.4156237e-06
4.7384384e-05
7.7183389e-07
4.7052233e-05
4.4627395e-07
4.6872682e-05
2.379766e-07
4.677453e-05
1.3093874e-07
4.6724186e-05
6.6281271e-08
4.6698685e-05
3.3672833e-08
4.6686924e-05
1.5252298e-08
4.6681893e-05
6.4843325e-09
4.6680252e-05
1.9931491e-09
4.6680058e-05
1.4747943e-10
4.6680445e-05
-5.9721964e-10
4.6680961e-05
-7.3645116e-10
4.6681443e-05
-6.7399757e-10
4.6681826e-05
-5.2987174e-10
4.668211e-05
-3.9061629e-10
4.6682309e-05
-2.7212258e-10
4.6682444e-05
-1.8366302e-10
4.6682532e-05
-1.2001136e-10
4.6682589e-05
-7.6751215e-11
4.6682624e-05
-4.7963621e-11
4.6682646e-05
-2.9443861e-11
4.6682659e-05
-1.771482e-11
4.6682667e-05
-1.0466433e-11
4.6682672e-05
-6.059704e-12
4.6682674e-05
-3.4418087e-12
4.6682676e-05
-1.9119147e-12
4.6682676e-05
-1.0365327e-12
4.6682677e-05
-5.4418651e-13
4.6682677e-05
-2.7326927e-13
4.6682677e-05
-1.2944794e-13
4.6682677e-05
-5.7780174e-14
4.6682677e-05
-2.4270388e-14
4.6682677e-05
-8.9088684e-15
4.6682677e-05
-1.4095587e-15
4.6682677e-05
2.5289952e-15
4.6682677e-05
2.7629806e-15
4.6682677e-05
-6.6791137e-17
4.6682677e-05
-2.4342308e-15
4.6682677e-05
-3.2996551e-15
4.6682677e-05
-2.3410221e-15
4.6682677e-05
-9.0862702e-16
4.6682677e-05
-6.9251566e-16
4.6682677e-05
-9.2247514e-16
4.6682677e-05
-1.2085407e-15
4.6682677e-05
-2.1329451e-15
4.6682677e-05
-2.1954304e-15
4.6682677e-05
-1.4196241e-15
4.6682677e-05
-1.5708633e-16
4.6682677e-05
1.0888072e-15
4.6682677e-05
1.52599e-15
4.6682677e-05
2.2182264e-15
4.6682677e-05
1.7306608e-15
4.6682677e-05
1.7214862e-15
4.6682677e-05
1.805797e-15
4.6682677e-05
2.3492834e-15
4.6682677e-05
2.6625598e-15
4.6682677e-05
3.2693497e-15
4.6682677e-05
3.406643e-15
4.6682677e-05
3.5397602e-15
4.6682677e-05
3.2852753e-15
4.6682677e-05
3.0240968e-15
4.6682677e-05
2.6529597e-15
4.6682677e-05
2.7897161e-15
4.6682677e-05
2.5407233e-15
4.6682677e-05
2.4199684e-15
4.6682677e-05
2.2834913e-15
4.6682677e-05
2.3149474e-15
4.6682677e-05
2.2559402e-15
4.6682677e-05
2.366224e-15
4.6682677e-05
2.2006999e-15
4.6682677e-05
2.2980057e-15
4.6682677e-05
2.0164268e-15
4.6682677e-05
2.1237613e-15
4.6682677e-05
1.8243053e-15
4.6682677e-05
2.0206725e-15
4.6682677e-05
1.7880167e-15
4.6682677e-05
2.0009529e-15
4.6682677e-05
1.5521805e-15
4.6682677e-05
1.6800511e-15
4.6682677e-05
1.3973988e-15
4.6682677e-05
2.2187286e-15
4.6682677e-05
2.1484486e-15
4.6682677e-05
2.2771039e-15
4.6682677e-05
8.5819025e-16
4.6682677e-05
2.1599802e-17
4.6682677e-05
-1.8243082e-15
4.6682677e-05
-2.4701618e-15
4.6682677e-05
-3.2685374e-15
4.6682677e-05
-2.8127555e-15
4.6682677e-05
-2.9582956e-15
4.6682677e-05
-2.5086904e-15
4.6682677e-05
-2.8031255e-15
4.6682677e-05
-2.4177795e-15
4.6682677e-05
-2.5655741e-15
4.6682677e-05
-2.2497888e-15
4.6682677e-05
-2.1724598e-15
4.6682677e-05
-1.7542368e-15
4.6682677e-05
-2.3464585e-15
4.6682677e-05
-2.9556895e-15
4.6682677e-05
-4.1982286e-15
4.6682677e-05
-4.7022829e-15
4.6682677e-05
-4.6734879e-15
4.6682677e-05
-4.2939439e-15
4.6682677e-05
-2.9598114e-15
4.6682677e-05
-2.3948869e-15
4.6682677e-05
-1.8228292e-15
4.6682677e-05
-1.5892512e-15
4.6682677e-05
-1.8879895e-15
4.6682677e-05
-1.9802886e-15
4.6682677e-05
-2.1061767e-15
4.6682677e-05
-2.0852947e-15
4.6682677e-05
-1.9027848e-15
4.6682677e-05
-1.9742852e-15
4.6682677e-05
-1.8547091e-15
4.6682677e-05
-2.137054e-15
4.6682677e-05
-2.0054247e-15
4.6682677e-05
-2.19676e-15
4.6682677e-05
-1.9143911e-15
4.6682677e-05
-1.9904732e-15
4.6682677e-05
-1.717213e-15
4.6682677e-05
-1.7923842e-15
4.6682677e-05
-1.5493668e-15
4.6682677e-05
-1.6041605e-15
4.6682677e-05
-1.3590688e-15
4.6682677e-05
-1.4002361e-15
4.6682677e-05
-1.1750405e-15
4.6682677e-05
-1.2194992e-15
4.6682677e-05
-1.0063708e-15
4.6682677e-05
-1.0396685e-15
4.6682677e-05
-8.4922582e-16
4.6682677e-05
-8.6608202e-16
4.6682677e-05
-7.3002397e-16
4.6682677e-05
-7.6165725e-16
4.6682677e-05
-7.0287785e-16
4.6682677e-05
-7.0098234e-16
4.6682677e-05
-6.8312608e-16
4.6682677e-05
-7.0089757e-16
4.6682677e-05
-8.0884249e-16
4.6682677e-05
-7.2877296e-16
4.6682677e-05
-7.2749875e-16
4.6682677e-05
-6.9063172e-16
4.6682677e-05
-1.2270427e-15
4.6682677e-05
-1.6583938e-15
4.6682677e-05
-1.9168015e-15
4.6682677e-05
-8.4612719e-16
4.6682677e-05
4.0855213e-17
4.6682677e-05
1.8502602e-15
4.6682677e-05
2.6655727e-15
4.6682677e-05
3.1885497e-15
4.6682677e-05
2.6455348e-15
4.6682677e-05
2.5175972e-15
4.6682677e-05
1.82988e-15
4.6682677e-05
1.755121e-15
4.6682677e-05
1.0995149e-15
4.6682677e-05
1.1137914e-15
4.6682677e-05
9.2574088e-16
4.6682677e-05
1.3023405e-15
4.6682677e-05
1.2375478e-15
4.6682677e-05
1.4377198e-15
4.6682677e-05
1.3177736e-15
4.6682677e-05
1.4250878e-15
4.6682677e-05
1.1843611e-15
4.6682677e-05
1.1408735e-15
4.6682677e-05
1.0934134e-15
4.6682677e-05
1.6263382e-15
4.6682677e-05
2.020867e-15
4.6682677e-05
2.1436751e-15
4.6682677e-05
1.1758238e-15
4.6682677e-05
2.5419879e-16
4.6682677e-05
-1.17049e-15
4.6682677e-05
-2.2329159e-15
4.6682677e-05
-2.6110677e-15
4.6682677e-05
-2.4007411e-15
4.6682677e-05
-2.2233581e-15
4.6682677e-05
-1.9882381e-15
4.6682677e-05
-2.0155069e-15
4.6682677e-05
-2.0402033e-15
4.6682677e-05
-2.1067247e-15
4.6682677e-05
-2.1390983e-15
4.6682677e-05
-2.1745535e-15
4.6682677e-05
-2.274926e-15
4.6682677e-05
-2.2936733e-15
4.6682677e-05
-2.4279149e-15
4.6682677e-05
-2.3108165e-15
4.6682677e-05
-2.4661806e-15
4.6682677e-05
-2.264263e-15
4.6682677e-05
-2.5093965e-15
4.6682677e-05
-2.3043663e-15
4.6682677e-05
-2.5675723e-15
4.6682677e-05
-2.0983335e-15
4.6682677e-05
-1.9843411e-15
4.6682677e-05
-1.3920054e-15
4.6682677e-05
-1.5425873e-15
4.6682677e-05
-1.557941e-15
4.6682677e-05
-1.6695557e-15
4.6682677e-05
-7.1769519e-16
4.6682677e-05
1.7770258e-16
4.6682677e-05
1.6727699e-15
4.6682677e-05
2.7283739e-15
4.6682677e-05
3.117117e-15
4.6682677e-05
3.011532e-15
4.6682677e-05
3.0287768e-15
4.6682677e-05
3.1472907e-15
4.6682677e-05
3.2465668e-15
4.6682677e-05
2.5180849e-15
4.6682677e-05
1.6762381e-15
4.6682677e-05
-1.2938212e-18
4.6682677e-05
-1.842984e-15
4.6682677e-05
-2.943312e-15
4.6682677e-05
-2.8222872e-15
4.6682677e-05
-1.7487371e-15
4.6682677e-05
-3.7296732e-16
4.6682677e-05
1.2781562e-15
4.6682677e-05
2.2552136e-15
4.6682677e-05
2.1757752e-15
4.6682677e-05
1.1799897e-15
4.6682677e-05
-1.3342381e-16
4.6682677e-05
-1.3868009e-15
4.6682677e-05
-2.5291607e-15
4.6682677e-05
-2.6616007e-15
4.6682677e-05
-2.582943e-15
4.6682677e-05
-2.4048129e-15
4.6682677e-05
-2.8046981e-15
4.6682677e-05
-3.1310633e-15
4.6682677e-05
-3.0349072e-15
4.6682677e-05
-1.8933055e-15
4.6682677e-05
-7.5655936e-16
4.6682677e-05
6.5792922e-16
4.6682677e-05
1.6898291e-15
4.6682677e-05
2.4463444e-15
4.6682677e-05
2.6426928e-15
4.6682677e-05
2.5583811e-15
4.6682677e-05
1.6627844e-15
4.6682677e-05
7.1565586e-16
4.6682677e-05
-7.2437641e-16
4.6682677e-05
-1.4866443e-15
4.6682677e-05
-1.7147171e-15
4.6682677e-05
-1.5368061e-15
4.6682677e-05
-1.2304782e-15
4.6682677e-05
-1.0458407e-15
4.6682677e-05
-1.0621102e-15
4.6682677e-05
-1.5127017e-15
4.6682677e-05
-2.0325604e-15
4.6682677e-05
-2.2939783e-15
4.6682677e-05
-1.5318171e-15
4.6682677e-05
-7.4239769e-16
4.6682677e-05
1.1875416e-15
4.6682677e-05
2.6218747e-15
4.6682677e-05
3.1005054e-15
4.6682677e-05
2.1308241e-15
4.6682677e-05
6.9433401e-16
4.6682677e-05
-9.5602839e-16
4.6682677e-05
-1.9634499e-15
4.6682677e-05
-2.3074352e-15
4.6682677e-05
-2.1414597e-15
4.6682677e-05
-1.998898e-15
4.6682677e-05
-1.9111888e-15
4.6682677e-05
-1.8133696e-15
4.6682677e-05
-1.7833274e-15
4.6682677e-05
-1.9814218e-15
4.6682677e-05
-2.5791534e-15
4.6682677e-05
-3.1827499e-15
4.6682677e-05
-3.3322231e-15
4.6682677e-05
-2.3601777e-15
4.6682677e-05
-1.4583483e-15
4.6682677e-05
7.2467891e-17
4.6682677e-05
1.3496767e-15
4.6682677e-05
1.8559077e-15
4.6682677e-05
1.7230345e-15
4.6682677e-05
1.4454831e-15
4.6682677e-05
1.2804248e-15
4.6682677e-05
1.5134778e-15
4.6682677e-05
2.2686004e-15
4.6682677e-05
2.9511165e-15
4.6682677e-05
2.9832947e-15
4.6682677e-05
2.0742267e-15
4.6682677e-05
9.8520583e-16
4.6682677e-05
-4.8928097e-16
4.6682677e-05
-1.4163756e-15
4.6682677e-05
-1.6295681e-15
4.6682677e-05
-1.2924696e-15
4.6682677e-05
-1.1455584e-15
4.6682677e-05
-1.015509e-15
4.6682677e-05
-1.2767839e-15
4.6682677e-05
-1.4441792e-15
4.6682677e-05
-1.4444725e-15
4.6682677e-05
-1.0584795e-15
4.6682677e-05
-1.3460131e-15
4.6682677e-05
-2.3463611e-15
4.6682677e-05
-2.8890075e-15
4.6682677e-05
-1.106415e-15
4.6002773e-16
0.00019469214
0.0004041693
0.00014360962
0.00012695409
0.00011230147
6.1638455e-05
9.6619293e-05
3.0581094e-05
8.776222e-05
1.6323396e-05
8.2755406e-05
9.409569e-06
7.9871701e-05
5.2600124e-06
7.8206034e-05
3.0812918e-06
7.7256668e-05
1.7211952e-06
7.6718194e-05
9.8474042e-07
7.6420462e-05
5.3570124e-07
7.6258218e-05
2.9317646e-07
7.6172993e-05
1.5150217e-07
7.61296e-05
7.7063132e-08
7.6108851e-05
3.5999694e-08
7.6099695e-05
1.5639388e-08
7.6096324e-05
5.3641125e-09
7.6095587e-05
8.8480954e-10
7.6095937e-05
-9.4586529e-10
7.6096611e-05
-1.4105252e-09
7.609729e-05
-1.3529698e-09
7.6097854e-05
-1.0931164e-09
7.609828e-05
-8.1665961e-10
7.6098584e-05
-5.756252e-10
7.6098791e-05
-3.9135988e-10
7.6098929e-05
-2.5763327e-10
7.6099018e-05
-1.6565522e-10
7.6099074e-05
-1.0411133e-10
7.6099108e-05
-6.4210266e-11
7.609913e-05
-3.8838464e-11
7.6099142e-05
-2.3071145e-11
7.609915e-05
-1.3439188e-11
7.6099154e-05
-7.6772363e-12
7.6099156e-05
-4.2908896e-12
7.6099157e-05
-2.3416555e-12
7.6099158e-05
-1.2393051e-12
7.6099158e-05
-6.3026128e-13
7.6099159e-05
-3.0337452e-13
7.6099159e-05
-1.3702726e-13
7.6099159e-05
-5.5325183e-14
7.6099159e-05
-1.6509335e-14
7.6099159e-05
1.9016661e-15
7.6099159e-05
8.7106648e-15
7.6099159e-05
8.8201979e-15
7.6099159e-05
4.6249971e-15
7.6099159e-05
1.8976481e-15
7.6099159e-05
1.0578651e-15
7.6099159e-05
1.9155924e-15
7.6099159e-05
2.6598549e-15
7.6099159e-05
3.1215918e-15
7.6099159e-05
1.831528e-15
7.6099159e-05
1.1286081e-15
7.6099159e-05
-2.9253604e-16
7.6099159e-05
-1.9049749e-16
7.6099159e-05
3.9476458e-16
7.6099159e-05
1.5351303e-15
7.6099159e-05
2.0831788e-15
7.6099159e-05
2.3098435e-15
7.6099159e-05
1.4614526e-15
7.6099159e-05
1.1086195e-15
7.6099159e-05
4.1009134e-16
7.6099159e-05
8.0346042e-16
7.6099159e-05
1.2390689e-15
7.6099159e-05
1.8108379e-15
7.6099159e-05
2.164774e-15
7.6099159e-05
2.2394417e-15
7.6099159e-05
2.2896654e-15
7.6099159e-05
1.8461728e-15
7.6099159e-05
1.4932096e-15
7.6099159e-05
1.2161794e-15
7.6099159e-05
1.1275475e-15
7.6099159e-05
1.2571774e-15
7.6099159e-05
1.0070797e-15
7.6099159e-05
1.0688311e-15
7.6099159e-05
9.88497e-16
7.6099159e-05
1.0797326e-15
7.6099159e-05
1.0647619e-15
7.6099159e-05
1.093123e-15
7.6099159e-05
1.0711423e-15
7.6099159e-05
9.6884676e-16
7.6099159e-05
9.2479475e-16
7.6099159e-05
7.6349981e-16
7.6099159e-05
8.2284213e-16
7.6099159e-05
6.7321929e-16
7.6099159e-05
7.1816522e-16
7.6099159e-05
3.6217543e-16
7.6099159e-05
4.5792142e-16
7.6099159e-05
3.9598338e-16
7.6099159e-05
1.0400854e-15
7.6099159e-05
9.2478359e-16
7.6099159e-05
5.1171662e-16
7.6099159e-05
-9.1587618e-16
7.6099159e-05
-2.1575181e-15
7.6099159e-05
-3.4012408e-15
7.6099159e-05
-3.3716209e-15
7.6099159e-05
-3.3375662e-15
7.6099159e-05
-2.4306718e-15
7.6099159e-05
-2.2117175e-15
7.6099159e-05
-1.682012e-15
7.6099159e-05
-1.5848795e-15
7.6099159e-05
-1.2692114e-15
7.6099159e-05
-1.3025672e-15
7.6099159e-05
-9.6972654e-16
7.6099159e-05
-9.5557925e-16
7.6099159e-05
-7.2915679e-16
7.6099159e-05
-1.2924392e-15
7.6099159e-05
-2.2207254e-15
7.6099159e-05
-3.5879353e-15
7.6099159e-05
-4.6349161e-15
7.6099159e-05
-4.5265793e-15
7.6099159e-05
-3.9371911e-15
7.6099159e-05
-2.0518044e-15
7.6099159e-05
-1.2056607e-15
7.6099159e-05
-3.1668506e-16
7.6099159e-05
-3.267329e-16
7.6099159e-05
-4.6865836e-16
7.6099159e-05
-7.589847e-16
7.6099159e-05
-8.1508368e-16
7.6099159e-05
-1.0256317e-15
7.6099159e-05
-6.479507e-16
7.6099159e-05
-9.1624896e-16
7.6099159e-05
-4.7826956e-16
7.6099159e-05
-9.7862228e-16
7.6099159e-05
-5.84454e-16
7.6099159e-05
-1.0422627e-15
7.6099159e-05
-5.5680228e-16
7.6099159e-05
-8.6870496e-16
7.6099159e-05
-3.6429939e-16
7.6099159e-05
-6.2194024e-16
7.6099159e-05
-1.4513974e-16
7.6099159e-05
-3.6320891e-16
7.6099159e-05
8.3814058e-17
7.6099159e-05
-1.0301768e-16
7.6099159e-05
2.9976815e-16
7.6099159e-05
1.3954672e-16
7.6099159e-05
4.9838885e-16
7.6099159e-05
3.780921e-16
7.6099159e-05
6.8139418e-16
7.6099159e-05
5.9731886e-16
7.6099159e-05
8.1022917e-16
7.6099159e-05
7.3140127e-16
7.6099159e-05
8.4298814e-16
7.6099159e-05
8.2038998e-16
7.6099159e-05
8.3595946e-16
7.6099159e-05
7.9520845e-16
7.6099159e-05
6.7920015e-16
7.6099159e-05
8.0569466e-16
7.6099159e-05
7.3156685e-16
7.6099159e-05
6.5725751e-16
7.6099159e-05
1.8673596e-17
7.6099159e-05
-1.5885561e-16
7.6099159e-05
-2.0990444e-16
7.6099159e-05
1.2424839e-15
7.6099159e-05
2.3256729e-15
7.6099159e-05
3.6680529e-15
7.6099159e-05
3.5881767e-15
7.6099159e-05
3.230045e-15
7.6099159e-05
2.0715493e-15
7.6099159e-05
1.6635148e-15
7.6099159e-05
6.3498496e-16
7.6099159e-05
5.2215032e-16
7.6099159e-05
-2.677868e-16
7.6099159e-05
-2.6769137e-16
7.6099159e-05
-6.2281531e-16
7.6099159e-05
-8.6731812e-17
7.6099159e-05
-2.4076765e-16
7.6099159e-05
1.5146705e-16
7.6099159e-05
-7.1540013e-17
7.6099159e-05
1.4655793e-16
7.6099159e-05
-2.2172515e-16
7.6099159e-05
-8.0747636e-17
7.6099159e-05
-1.5723934e-16
7.6099159e-05
5.2652565e-16
7.6099159e-05
6.7648133e-16
7.6099159e-05
4.7952713e-16
7.6099159e-05
-6.2669693e-16
7.6099159e-05
-1.8535345e-15
7.6099159e-05
-2.945919e-15
7.6099159e-05
-2.9505282e-15
7.6099159e-05
-2.7131411e-15
7.6099159e-05
-1.8213458e-15
7.6099159e-05
-1.3965724e-15
7.6099159e-05
-9.5016847e-16
7.6099159e-05
-9.4277683e-16
7.6099159e-05
-8.8498947e-16
7.6099159e-05
-9.4926976e-16
7.6099159e-05
-9.803139e-16
7.6099159e-05
-1.0440962e-15
7.6099159e-05
-1.2056612e-15
7.6099159e-05
-1.2058024e-15
7.6099159e-05
-1.3479811e-15
7.6099159e-05
-1.1878866e-15
7.6099159e-05
-1.3180188e-15
7.6099159e-05
-1.0900087e-15
7.6099159e-05
-1.3805379e-15
7.6099159e-05
-1.1626942e-15
7.6099159e-05
-1.38985e-15
7.6099159e-05
-8.1942013e-16
7.6099159e-05
-6.9407849e-16
7.6099159e-05
-4.9841847e-17
7.6099159e-05
-2.3492993e-16
7.6099159e-05
1.242377e-17
7.6099159e-05
1.670622e-16
7.6099159e-05
1.3115311e-15
7.6099159e-05
2.3497107e-15
7.6099159e-05
3.4545296e-15
7.6099159e-05
3.604253e-15
7.6099159e-05
3.2760241e-15
7.6099159e-05
2.6822593e-15
7.6099159e-05
2.4407626e-15
7.6099159e-05
2.2591173e-15
7.6099159e-05
1.8668206e-15
7.6099159e-05
9.0987344e-16
7.6099159e-05
-6.0798646e-16
7.6099159e-05
-2.2229076e-15
7.6099159e-05
-3.3042272e-15
7.6099159e-05
-3.1183541e-15
7.6099159e-05
-2.0146823e-15
7.6099159e-05
-1.2989688e-16
7.6099159e-05
1.5266842e-15
7.6099159e-05
2.678359e-15
7.6099159e-05
2.6911549e-15
7.6099159e-05
1.3974369e-15
7.6099159e-05
-1.7101541e-16
7.6099159e-05
-2.0388216e-15
7.6099159e-05
-3.0019531e-15
7.6099159e-05
-3.2933056e-15
7.6099159e-05
-2.6719093e-15
7.6099159e-05
-1.978115e-15
7.6099159e-05
-1.5032762e-15
7.6099159e-05
-1.7050695e-15
7.6099159e-05
-1.6798596e-15
7.6099159e-05
-1.1172832e-15
7.6099159e-05
1.243459e-16
7.6099159e-05
1.3702332e-15
7.6099159e-05
2.4377273e-15
7.6099159e-05
2.5142678e-15
7.6099159e-05
2.6484135e-15
7.6099159e-05
1.9289626e-15
7.6099159e-05
1.2912789e-15
7.6099159e-05
-2.8659971e-16
7.6099159e-05
-1.416083e-15
7.6099159e-05
-2.2561881e-15
7.6099159e-05
-2.2577057e-15
7.6099159e-05
-1.5430342e-15
7.6099159e-05
-8.2519944e-16
7.6099159e-05
-6.65393e-17
7.6099159e-05
2.9578535e-16
7.6099159e-05
2.6238886e-16
7.6099159e-05
-2.3078052e-16
7.6099159e-05
-6.4828636e-16
7.6099159e-05
-7.5588331e-16
7.6099159e-05
2.2117156e-16
7.6099159e-05
1.4565207e-15
7.6099159e-05
3.0279951e-15
7.6099159e-05
3.4138757e-15
7.6099159e-05
2.665824e-15
7.6099159e-05
8.4838224e-16
7.6099159e-05
-9.8060148e-16
7.6099159e-05
-2.3755302e-15
7.6099159e-05
-2.6028089e-15
7.6099159e-05
-2.2714017e-15
7.6099159e-05
-1.5260195e-15
7.6099159e-05
-1.0629837e-15
7.6099159e-05
-6.957501e-16
7.6099159e-05
-5.0082303e-16
7.6099159e-05
-4.6181772e-16
7.6099159e-05
-7.2871957e-16
7.6099159e-05
-1.4149125e-15
7.6099159e-05
-1.8359607e-15
7.6099159e-05
-1.6607622e-15
7.6099159e-05
-6.0388071e-16
7.6099159e-05
7.6564769e-16
7.6099159e-05
1.9587863e-15
7.6099159e-05
2.2872398e-15
7.6099159e-05
2.0924232e-15
7.6099159e-05
1.1975171e-15
7.6099159e-05
6.1547608e-16
7.6099159e-05
2.4361419e-16
7.6099159e-05
4.8357009e-16
7.6099159e-05
1.1502616e-15
7.6099159e-05
1.6123899e-15
7.6099159e-05
1.2240996e-15
7.6099159e-05
1.5856309e-16
7.6099159e-05
-1.1949659e-15
7.6099159e-05
-2.1873574e-15
7.6099159e-05
-2.0110919e-15
7.6099159e-05
-1.5354665e-15
7.6099159e-05
-5.4942384e-16
7.6099159e-05
-1.4305439e-16
7.6099159e-05
1.9051081e-16
7.6099159e-05
-3.3279733e-17
7.6099159e-05
-5.5180593e-17
7.6099159e-05
-3.9327912e-17
7.6099159e-05
2.5780483e-16
7.6099159e-05
-3.790847e-16
7.6099159e-05
-1.3333639e-15
7.6099159e-05
-1.2453375e-15
7.6099159e-05
1.3116513e-15
1.7989738e-15
0.00023312986
0.00043770624
0.00018548527
0.00017459868
0.00015018421
9.6939504e-05
0.0001310242
4.9741101e-05
0.00011965162
2.7695973e-05
0.0001131446
1.5916592e-05
0.00010931814
9.0864745e-06
0.00010710183
5.2976013e-06
0.0001058215
3.001529e-06
0.00010509347
1.7127638e-06
0.00010468612
9.4304163e-07
0.00010446306
5.1623072e-07
0.00010434425
2.7031322e-07
0.00010428311
1.3819651e-07
0.00010425319
6.5917783e-08
0.00010423959
2.9238026e-08
0.0001042342
1.0755432e-08
0.00010423268
2.4068304e-09
0.00010423281
-1.0797525e-09
0.00010423352
-2.1161054e-09
0.00010423431
-2.1445165e-09
0.000104235
-1.7799586e-09
0.00010423553
-1.3486071e-09
0.00010423592
-9.6080319e-10
0.00010423618
-6.5790988e-10
0.00010423636
-4.3589088e-10
0.00010423648
-2.8166624e-10
0.00010423655
-1.7787403e-10
0.0001042366
-1.1015902e-10
0.00010423662
-6.6918421e-11
0.00010423664
-3.9917113e-11
0.00010423665
-2.3359414e-11
0.00010423666
-1.3407462e-11
0.00010423666
-7.5329413e-12
0.00010423666
-4.1338649e-12
0.00010423666
-2.2035376e-12
0.00010423666
-1.1307832e-12
0.00010423666
-5.5163767e-13
0.00010423666
-2.520775e-13
0.00010423666
-1.0280559e-13
0.00010423666
-3.1037633e-14
0.00010423666
2.4038972e-15
0.00010423666
1.5034185e-14
0.00010423666
1.5670478e-14
0.00010423666
1.0428762e-14
0.00010423666
6.6062621e-15
0.00010423666
5.14435e-15
0.00010423666
5.6962604e-15
0.00010423666
6.1321798e-15
0.00010423666
5.6417284e-15
0.00010423666
4.0877581e-15
0.00010423666
2.7431169e-15
0.00010423666
1.4909445e-15
0.00010423666
1.530614e-15
0.00010423666
2.2878488e-15
0.00010423666
2.9934181e-15
0.00010423666
3.1653309e-15
0.00010423666
2.2875468e-15
0.00010423666
1.4137898e-15
0.00010423666
-6.1820008e-17
0.00010423666
-4.5877036e-16
0.00010423666
-3.0032701e-16
0.00010423666
6.9193319e-16
0.00010423666
1.2143306e-15
0.00010423666
1.9880979e-15
0.00010423666
1.9104794e-15
0.00010423666
1.9399844e-15
0.00010423666
1.166688e-15
0.00010423666
8.047947e-16
0.00010423666
1.1581327e-17
0.00010423666
4.0162609e-16
0.00010423666
-4.4874624e-17
0.00010423666
2.5781356e-16
0.00010423666
-8.8367728e-17
0.00010423666
3.4021801e-16
0.00010423666
-6.0314816e-18
0.00010423666
4.7654405e-16
0.00010423666
6.7254196e-17
0.00010423666
5.5407568e-16
0.00010423666
-2.1910484e-18
0.00010423666
4.281185e-16
0.00010423666
-2.1738968e-16
0.00010423666
2.9790645e-16
0.00010423666
-3.4249914e-16
0.00010423666
1.3913307e-16
0.00010423666
-6.8106602e-16
0.00010423666
-1.1631024e-16
0.00010423666
-5.1604435e-16
0.00010423666
5.837255e-16
0.00010423666
-9.7199907e-17
0.00010423666
-3.304956e-16
0.00010423666
-2.4103188e-15
0.00010423666
-3.3642302e-15
0.00010423666
-4.578932e-15
0.00010423666
-3.887694e-15
0.00010423666
-3.6707139e-15
0.00010423666
-2.1592416e-15
0.00010423666
-1.951861e-15
0.00010423666
-8.5463449e-16
0.00010423666
-1.0365077e-15
0.00010423666
-2.8032449e-16
0.00010423666
-5.1727959e-16
0.00010423666
2.2745452e-16
0.00010423666
6.5909141e-17
0.00010423666
5.424907e-16
0.00010423666
-5.2009186e-16
0.00010423666
-1.4720615e-15
0.00010423666
-3.4975162e-15
0.00010423666
-4.6512183e-15
0.00010423666
-4.6374212e-15
0.00010423666
-3.766696e-15
0.00010423666
-1.377988e-15
0.00010423666
-2.0057619e-16
0.00010423666
6.761779e-16
0.00010423666
9.382114e-16
0.00010423666
2.923087e-16
0.00010423666
2.4603959e-16
0.00010423666
-6.5783932e-17
0.00010423666
-1.3367601e-16
0.00010423666
1.7982862e-16
0.00010423666
2.5763275e-17
0.00010423666
4.5468508e-16
0.00010423666
-6.3878291e-18
0.00010423666
3.3050573e-16
0.00010423666
-1.4185898e-16
0.00010423666