/*--------------------------------*- C++ -*----------------------------------*\
| =========                 |                                                 |
| \\      /  F ield         | OpenFOAM: The Open Source CFD Toolbox           |
|  \\    /   O peration     | Version:  2206                                  |
|   \\  /    A nd           | Website:  www.openfoam.com                      |
|    \\/     M anipulation  |                                                 |
\*---------------------------------------------------------------------------*/
FoamFile
{
    version     2.0;
    format      ascii;
    arch        "LSB;label=32;scalar=64";
    class       volVectorField;
    location    "11";
    object      U;
}
// * * * * * * * * * * * * * * * * * * * * * * * * * * * * * * * * * * * * * //

dimensions      [0 1 -1 0 0 0 0];

internalField   nonuniform List<vector> 
15000
(
(0.15962853 0.053997679 0)
(0.11557193 0.0064916408 0)
(0.064251364 0.0014144181 0)
(0.055918598 0.00074959652 0)
(0.047595816 0.00028826428 0)
(0.044708798 0.00019883913 0)
(0.042412494 9.0518582e-05 0)
(0.041406637 6.0125172e-05 0)
(0.040707475 2.8977794e-05 0)
(0.040376989 1.8019115e-05 0)
(0.040167796 8.6623787e-06 0)
(0.040068658 4.9962855e-06 0)
(0.040011053 2.2682393e-06 0)
(0.039985308 1.17437e-06 0)
(0.039971973 4.4719971e-07 0)
(0.039967049 1.7435683e-07 0)
(0.03996518 1.4476022e-08 0)
(0.039965128 -2.993589e-08 0)
(0.039965544 -4.8519721e-08 0)
(0.039966152 -4.3179148e-08 0)
(0.03996668 -3.5739134e-08 0)
(0.039967111 -2.6057564e-08 0)
(0.039967422 -1.8571028e-08 0)
(0.039967642 -1.2483896e-08 0)
(0.03996779 -8.2601553e-09 0)
(0.039967887 -5.270576e-09 0)
(0.039967949 -3.3162051e-09 0)
(0.039967988 -2.0328633e-09 0)
(0.039968012 -1.229401e-09 0)
(0.039968026 -7.2623742e-10 0)
(0.039968035 -4.2120566e-10 0)
(0.03996804 -2.3786779e-10 0)
(0.039968042 -1.3164775e-10 0)
(0.039968044 -7.1064185e-11 0)
(0.039968045 -3.7607543e-11 0)
(0.039968045 -1.909278e-11 0)
(0.039968045 -9.0715965e-12 0)
(0.039968046 -3.9392631e-12 0)
(0.039968046 -1.9163795e-12 0)
(0.039968046 -1.0882034e-12 0)
(0.039968046 -6.7336982e-13 0)
(0.039968046 -1.6161874e-13 0)
(0.039968046 7.7725919e-14 0)
(0.039968046 1.1167902e-13 0)
(0.039968046 -3.0860521e-13 0)
(0.039968046 -4.6330032e-13 0)
(0.039968046 -4.2250142e-13 0)
(0.039968046 -5.706132e-14 0)
(0.039968046 2.6537392e-13 0)
(0.039968046 4.4252879e-13 0)
(0.039968046 3.0810485e-13 0)
(0.039968046 2.2458523e-13 0)
(0.039968046 -1.5412145e-14 0)
(0.039968046 -1.1366522e-14 0)
(0.039968046 7.8619277e-14 0)
(0.039968046 2.7536028e-13 0)
(0.039968046 3.5336604e-13 0)
(0.039968046 4.0565227e-13 0)
(0.039968046 2.8372476e-13 0)
(0.039968046 2.4237296e-13 0)
(0.039968046 1.241603e-13 0)
(0.039968046 1.8178067e-13 0)
(0.039968046 2.2185271e-13 0)
(0.039968046 2.8601653e-13 0)
(0.039968046 3.0514126e-13 0)
(0.039968046 2.9298234e-13 0)
(0.039968046 2.7577463e-13 0)
(0.039968046 2.1468688e-13 0)
(0.039968046 1.4704848e-13 0)
(0.039968046 1.3572336e-13 0)
(0.039968046 1.3000561e-13 0)
(0.039968046 1.7259273e-13 0)
(0.039968046 1.0734894e-13 0)
(0.039968046 1.2853226e-13 0)
(0.039968046 8.8256819e-14 0)
(0.039968046 1.1900009e-13 0)
(0.039968046 9.2467805e-14 0)
(0.039968046 1.1571123e-13 0)
(0.039968046 8.6997425e-14 0)
(0.039968046 9.1940515e-14 0)
(0.039968046 6.110427e-14 0)
(0.039968046 6.1142058e-14 0)
(0.039968046 4.8032543e-14 0)
(0.039968046 5.5441127e-14 0)
(0.039968046 4.1857607e-14 0)
(0.039968046 1.6244935e-14 0)
(0.039968046 9.8453306e-15 0)
(0.039968046 3.0642321e-14 0)
(0.039968046 1.1522498e-13 0)
(0.039968046 1.3560061e-13 0)
(0.039968046 4.6695681e-14 0)
(0.039968046 -1.6339246e-13 0)
(0.039968046 -3.6512629e-13 0)
(0.039968046 -5.4249545e-13 0)
(0.039968046 -5.3988779e-13 0)
(0.039968046 -4.8425601e-13 0)
(0.039968046 -3.3060818e-13 0)
(0.039968046 -2.6099407e-13 0)
(0.039968046 -1.9996439e-13 0)
(0.039968046 -1.7286718e-13 0)
(0.039968046 -1.5028847e-13 0)
(0.039968046 -1.5206266e-13 0)
(0.039968046 -1.4594716e-13 0)
(0.039968046 -1.3179349e-13 0)
(0.039968046 -1.0442221e-13 0)
(0.039968046 -1.5293786e-13 0)
(0.039968046 -2.8275687e-13 0)
(0.039968046 -4.6239656e-13 0)
(0.039968046 -6.0233448e-13 0)
(0.039968046 -5.737745e-13 0)
(0.039968046 -4.8689849e-13 0)
(0.039968046 -2.1781501e-13 0)
(0.039968046 -1.1784668e-13 0)
(0.039968046 -1.3960848e-15 0)
(0.039968046 -7.7403804e-15 0)
(0.039968046 -2.210099e-14 0)
(0.039968046 -7.4227914e-14 0)
(0.039968046 -7.9408524e-14 0)
(0.039968046 -1.1466987e-13 0)
(0.039968046 -6.0889413e-14 0)
(0.039968046 -9.7759033e-14 0)
(0.039968046 -4.3189729e-14 0)
(0.039968046 -1.1320807e-13 0)
(0.039968046 -6.7321157e-14 0)
(0.039968046 -1.2545405e-13 0)
(0.039968046 -6.1694469e-14 0)
(0.039968046 -9.4720437e-14 0)
(0.039968046 -2.919928e-14 0)
(0.039968046 -5.701528e-14 0)
(0.039968046 1.6673178e-15 0)
(0.039968046 -2.3628489e-14 0)
(0.039968046 2.9059958e-14 0)
(0.039968046 5.1900296e-15 0)
(0.039968046 5.1083714e-14 0)
(0.039968046 2.8947722e-14 0)
(0.039968046 7.1132267e-14 0)
(0.039968046 5.3319373e-14 0)
(0.039968046 9.1145798e-14 0)
(0.039968046 7.7971653e-14 0)
(0.039968046 1.0672022e-13 0)
(0.039968046 9.3134094e-14 0)
(0.039968046 1.1021878e-13 0)
(0.039968046 1.0471943e-13 0)
(0.039968046 1.1186827e-13 0)
(0.039968046 1.0146016e-13 0)
(0.039968046 9.0749003e-14 0)
(0.039968046 1.0444643e-13 0)
(0.039968046 1.0613145e-13 0)
(0.039968046 8.8845647e-14 0)
(0.039968046 -5.4229628e-16 0)
(0.039968046 -4.9295801e-14 0)
(0.039968046 -3.6091159e-14 0)
(0.039968046 1.8860282e-13 0)
(0.039968046 3.7685075e-13 0)
(0.039968046 5.7574825e-13 0)
(0.039968046 5.6638247e-13 0)
(0.039968046 4.6306969e-13 0)
(0.039968046 2.6739914e-13 0)
(0.039968046 1.8069524e-13 0)
(0.039968046 3.8829702e-14 0)
(0.039968046 1.9792641e-14 0)
(0.039968046 -7.190999e-14 0)
(0.039968046 -6.4636899e-14 0)
(0.039968046 -8.7321574e-14 0)
(0.039968046 -1.8513321e-14 0)
(0.039968046 -3.2128774e-14 0)
(0.039968046 8.7914388e-15 0)
(0.039968046 -1.7995146e-14 0)
(0.039968046 3.0303719e-15 0)
(0.039968046 -4.626431e-14 0)
(0.039968046 -3.5958028e-14 0)
(0.039968046 -3.8877172e-14 0)
(0.039968046 6.09915e-14 0)
(0.039968046 9.7132859e-14 0)
(0.039968046 5.8636757e-14 0)
(0.039968046 -1.3077699e-13 0)
(0.039968046 -3.1741805e-13 0)
(0.039968046 -4.9443458e-13 0)
(0.039968046 -4.9132281e-13 0)
(0.039968046 -4.2296878e-13 0)
(0.039968046 -2.5024181e-13 0)
(0.039968046 -1.7082513e-13 0)
(0.039968046 -9.4777649e-14 0)
(0.039968046 -8.8508041e-14 0)
(0.039968046 -7.9704718e-14 0)
(0.039968046 -9.0983178e-14 0)
(0.039968046 -9.4433772e-14 0)
(0.039968046 -1.0686084e-13 0)
(0.039968046 -1.2562373e-13 0)
(0.039968046 -1.2831317e-13 0)
(0.039968046 -1.409619e-13 0)
(0.039968046 -1.2028585e-13 0)
(0.039968046 -1.3268636e-13 0)
(0.039968046 -1.06075e-13 0)
(0.039968046 -1.4240224e-13 0)
(0.039968046 -1.1986015e-13 0)
(0.039968046 -1.4856475e-13 0)
(0.039968046 -7.5805639e-14 0)
(0.039968046 -5.504893e-14 0)
(0.039968046 2.0725538e-14 0)
(0.039968046 -1.5054534e-14 0)
(0.039968046 -8.3786116e-15 0)
(0.039968046 2.3849567e-14 0)
(0.039968046 2.0971282e-13 0)
(0.039968046 3.884375e-13 0)
(0.039968046 5.642731e-13 0)
(0.039968046 5.9171258e-13 0)
(0.039968046 5.1337516e-13 0)
(0.039968046 3.9403294e-13 0)
(0.039968046 3.3830493e-13 0)
(0.039968046 3.1084626e-13 0)
(0.039968046 2.5031945e-13 0)
(0.039968046 8.6986042e-14 0)
(0.039968046 -1.4471311e-13 0)
(0.039968046 -3.9269127e-13 0)
(0.039968046 -5.5580299e-13 0)
(0.039968046 -4.8994052e-13 0)
(0.039968046 -2.7622181e-13 0)
(0.039968046 3.7496522e-14 0)
(0.039968046 2.971646e-13 0)
(0.039968046 4.7627652e-13 0)
(0.039968046 4.5025761e-13 0)
(0.039968046 2.0496588e-13 0)
(0.039968046 -5.4917337e-14 0)
(0.039968046 -3.5296995e-13 0)
(0.039968046 -5.1649379e-13 0)
(0.039968046 -5.5103556e-13 0)
(0.039968046 -4.3184915e-13 0)
(0.039968046 -2.8283855e-13 0)
(0.039968046 -2.0655793e-13 0)
(0.039968046 -2.3815014e-13 0)
(0.039968046 -2.6252701e-13 0)
(0.039968046 -1.622203e-13 0)
(0.039968046 4.7080126e-14 0)
(0.039968046 2.4867002e-13 0)
(0.039968046 4.1180027e-13 0)
(0.039968046 4.2139408e-13 0)
(0.039968046 4.0486676e-13 0)
(0.039968046 2.6511523e-13 0)
(0.039968046 1.5384893e-13 0)
(0.039968046 -9.1866915e-14 0)
(0.039968046 -2.7782947e-13 0)
(0.039968046 -4.0788657e-13 0)
(0.039968046 -4.0156962e-13 0)
(0.039968046 -2.5914267e-13 0)
(0.039968046 -1.2352582e-13 0)
(0.039968046 -9.7145937e-15 0)
(0.039968046 4.9904684e-14 0)
(0.039968046 4.3333514e-14 0)
(0.039968046 -3.1217703e-14 0)
(0.039968046 -9.5417496e-14 0)
(0.039968046 -9.7548614e-14 0)
(0.039968046 7.3431704e-14 0)
(0.039968046 2.7200291e-13 0)
(0.039968046 5.2210881e-13 0)
(0.039968046 5.750694e-13 0)
(0.039968046 4.0542519e-13 0)
(0.039968046 1.1144506e-13 0)
(0.039968046 -1.9840678e-13 0)
(0.039968046 -4.1832646e-13 0)
(0.039968046 -4.4722664e-13 0)
(0.039968046 -3.5951785e-13 0)
(0.039968046 -2.1441127e-13 0)
(0.039968046 -1.3402601e-13 0)
(0.039968046 -7.2771273e-14 0)
(0.039968046 -4.3042333e-14 0)
(0.039968046 -3.8155534e-14 0)
(0.039968046 -8.7335602e-14 0)
(0.039968046 -1.9499886e-13 0)
(0.039968046 -2.6484591e-13 0)
(0.039968046 -2.2670437e-13 0)
(0.039968046 -4.1130317e-14 0)
(0.039968046 1.6984033e-13 0)
(0.039968046 3.5478745e-13 0)
(0.039968046 4.0489524e-13 0)
(0.039968046 3.4424518e-13 0)
(0.039968046 1.7251851e-13 0)
(0.039968046 6.4980806e-14 0)
(0.039968046 2.4124195e-15 0)
(0.039968046 3.6979525e-14 0)
(0.039968046 1.4422162e-13 0)
(0.039968046 2.2041611e-13 0)
(0.039968046 1.5379573e-13 0)
(0.039968046 -3.2063446e-14 0)
(0.039968046 -2.3966365e-13 0)
(0.039968046 -3.9686866e-13 0)
(0.039968046 -3.6171263e-13 0)
(0.039968046 -2.4698478e-13 0)
(0.039968046 -7.6375862e-14 0)
(0.039968046 4.2821889e-15 0)
(0.039968046 5.2216748e-14 0)
(0.039968046 2.2052781e-14 0)
(0.039968046 6.1861872e-15 0)
(0.039968046 1.7048864e-14 0)
(0.039968046 6.0068209e-14 0)
(0.039968046 -2.9988243e-14 0)
(0.039968046 -1.9160686e-13 0)
(0.039968046 -1.7421362e-13 0)
(0.039968046 2.2805004e-13 0)
(0.039968046 3.1621382e-13 0)
(0.36732384 0.1406283 0)
(0.29754389 0.025079385 0)
(0.1860793 0.0083694599 0)
(0.16132807 0.0041218682 0)
(0.13901859 0.0019375705 0)
(0.13040448 0.0011770125 0)
(0.12396461 0.00061111784 0)
(0.12095998 0.00037191022 0)
(0.1189454 0.00019726054 0)
(0.11794826 0.00011563955 0)
(0.11733081 6.0261501e-05 0)
(0.11702581 3.3418586e-05 0)
(0.11685065 1.65148e-05 0)
(0.11676842 8.3952832e-06 0)
(0.1167257 3.6651258e-06 0)
(0.11670834 1.5221063e-06 0)
(0.1167012 4.0023024e-07 0)
(0.11669986 -2.7656482e-08 0)
(0.1167004 -1.9886418e-07 0)
(0.11670175 -2.1587732e-07 0)
(0.11670304 -1.9039174e-07 0)
(0.11670415 -1.4612364e-07 0)
(0.11670497 -1.0648835e-07 0)
(0.11670557 -7.3390812e-08 0)
(0.11670597 -4.9216056e-08 0)
(0.11670624 -3.1937339e-08 0)
(0.11670642 -2.0323794e-08 0)
(0.11670653 -1.2631734e-08 0)
(0.11670659 -7.7203665e-09 0)
(0.11670664 -4.6214108e-09 0)
(0.11670666 -2.7165915e-09 0)
(0.11670667 -1.5627555e-09 0)
(0.11670668 -8.8178445e-10 0)
(0.11670669 -4.8630677e-10 0)
(0.11670669 -2.6192436e-10 0)
(0.11670669 -1.3631341e-10 0)
(0.11670669 -6.7529618e-11 0)
(0.11670669 -3.1351578e-11 0)
(0.11670669 -1.4089861e-11 0)
(0.11670669 -6.2481169e-12 0)
(0.11670669 -2.597584e-12 0)
(0.11670669 -4.799878e-13 0)
(0.11670669 6.511862e-13 0)
(0.11670669 7.1555859e-13 0)
(0.11670669 -4.4651448e-13 0)
(0.11670669 -1.1689545e-12 0)
(0.11670669 -1.3050835e-12 0)
(0.11670669 -5.9875384e-13 0)
(0.11670669 1.4949554e-13 0)
(0.11670669 3.9689899e-13 0)
(0.11670669 1.7645849e-13 0)
(0.11670669 3.362545e-14 0)
(0.11670669 -4.8368208e-13 0)
(0.11670669 -4.9742056e-13 0)
(0.11670669 -2.1105925e-13 0)
(0.11670669 3.1002607e-13 0)
(0.11670669 6.7581975e-13 0)
(0.11670669 8.4209406e-13 0)
(0.11670669 8.5590109e-13 0)
(0.11670669 6.9738381e-13 0)
(0.11670669 5.4180073e-13 0)
(0.11670669 6.3818774e-13 0)
(0.11670669 8.0533717e-13 0)
(0.11670669 9.563133e-13 0)
(0.11670669 1.1038882e-12 0)
(0.11670669 1.1162923e-12 0)
(0.11670669 1.1073771e-12 0)
(0.11670669 9.8381207e-13 0)
(0.11670669 8.3415484e-13 0)
(0.11670669 7.5973607e-13 0)
(0.11670669 7.5950375e-13 0)
(0.11670669 7.7948756e-13 0)
(0.11670669 6.4214506e-13 0)
(0.11670669 6.6358501e-13 0)
(0.11670669 5.9145007e-13 0)
(0.11670669 6.4647129e-13 0)
(0.11670669 6.1102447e-13 0)
(0.11670669 6.3227541e-13 0)
(0.11670669 5.9173622e-13 0)
(0.11670669 5.6189926e-13 0)
(0.11670669 5.2280757e-13 0)
(0.11670669 4.8154142e-13 0)
(0.11670669 4.8285472e-13 0)
(0.11670669 4.6710191e-13 0)
(0.11670669 4.7495864e-13 0)
(0.11670669 3.6671012e-13 0)
(0.11670669 3.6976485e-13 0)
(0.11670669 3.5566748e-13 0)
(0.11670669 6.3743491e-13 0)
(0.11670669 6.5446427e-13 0)
(0.11670669 5.501389e-13 0)
(0.11670669 -3.2702535e-14 0)
(0.11670669 -4.4074495e-13 0)
(0.11670669 -1.0707139e-12 0)
(0.11670669 -1.2187969e-12 0)
(0.11670669 -1.3350371e-12 0)
(0.11670669 -1.0425498e-12 0)
(0.11670669 -9.7209483e-13 0)
(0.11670669 -7.9984392e-13 0)
(0.11670669 -8.2492179e-13 0)
(0.11670669 -7.1224786e-13 0)
(0.11670669 -7.337048e-13 0)
(0.11670669 -6.7340642e-13 0)
(0.11670669 -6.3518583e-13 0)
(0.11670669 -5.155904e-13 0)
(0.11670669 -7.0090509e-13 0)
(0.11670669 -1.0075874e-12 0)
(0.11670669 -1.5083488e-12 0)
(0.11670669 -1.7929154e-12 0)
(0.11670669 -1.7475982e-12 0)
(0.11670669 -1.5568353e-12 0)
(0.11670669 -9.341253e-13 0)
(0.11670669 -6.873684e-13 0)
(0.11670669 -4.0803865e-13 0)
(0.11670669 -3.7036313e-13 0)
(0.11670669 -4.2322475e-13 0)
(0.11670669 -5.2808053e-13 0)
(0.11670669 -5.5102277e-13 0)
(0.11670669 -5.9308703e-13 0)
(0.11670669 -4.9121863e-13 0)
(0.11670669 -5.4455491e-13 0)
(0.11670669 -4.6238221e-13 0)
(0.11670669 -6.0354982e-13 0)
(0.11670669 -5.310684e-13 0)
(0.11670669 -6.3893478e-13 0)
(0.11670669 -5.0610051e-13 0)
(0.11670669 -5.5619861e-13 0)
(0.11670669 -4.213503e-13 0)
(0.11670669 -4.6496989e-13 0)
(0.11670669 -3.4538804e-13 0)
(0.11670669 -3.8272422e-13 0)
(0.11670669 -2.6961194e-13 0)
(0.11670669 -3.0352941e-13 0)
(0.11670669 -2.0248723e-13 0)
(0.11670669 -2.3600983e-13 0)
(0.11670669 -1.411723e-13 0)
(0.11670669 -1.6742399e-13 0)
(0.11670669 -8.1865297e-14 0)
(0.11670669 -9.9162594e-14 0)
(0.11670669 -3.5692444e-14 0)
(0.11670669 -5.8047363e-14 0)
(0.11670669 -2.4999366e-14 0)
(0.11670669 -3.0353962e-14 0)
(0.11670669 -1.8012796e-14 0)
(0.11670669 -3.4921004e-14 0)
(0.11670669 -7.1672585e-14 0)
(0.11670669 -3.6685491e-14 0)
(0.11670669 -3.2311846e-14 0)
(0.11670669 -4.9941478e-14 0)
(0.11670669 -2.8070123e-13 0)
(0.11670669 -4.3815015e-13 0)
(0.11670669 -4.7061639e-13 0)
(0.11670669 6.5356715e-14 0)
(0.11670669 4.7163581e-13 0)
(0.11670669 1.1174608e-12 0)
(0.11670669 1.2970708e-12 0)
(0.11670669 1.2899789e-12 0)
(0.11670669 9.2472425e-13 0)
(0.11670669 7.8431232e-13 0)
(0.11670669 4.5336908e-13 0)
(0.11670669 4.1444889e-13 0)
(0.11670669 1.4763064e-13 0)
(0.11670669 1.6237481e-13 0)
(0.11670669 1.0181145e-13 0)
(0.11670669 2.6492883e-13 0)
(0.11670669 2.378931e-13 0)
(0.11670669 3.2773059e-13 0)
(0.11670669 2.7190093e-13 0)
(0.11670669 3.1585476e-13 0)
(0.11670669 2.0418953e-13 0)
(0.11670669 2.0323539e-13 0)
(0.11670669 1.9682446e-13 0)
(0.11670669 4.4052413e-13 0)
(0.11670669 5.7526115e-13 0)
(0.11670669 5.4212999e-13 0)
(0.11670669 6.4308135e-14 0)
(0.11670669 -3.3113045e-13 0)
(0.11670669 -8.6597517e-13 0)
(0.11670669 -1.1102571e-12 0)
(0.11670669 -1.1151823e-12 0)
(0.11670669 -8.5447763e-13 0)
(0.11670669 -7.0765721e-13 0)
(0.11670669 -5.5244145e-13 0)
(0.11670669 -5.4182249e-13 0)
(0.11670669 -5.3377791e-13 0)
(0.11670669 -5.6124673e-13 0)
(0.11670669 -5.7403711e-13 0)
(0.11670669 -6.0005659e-13 0)
(0.11670669 -6.4487002e-13 0)
(0.11670669 -6.5523269e-13 0)
(0.11670669 -7.0182381e-13 0)
(0.11670669 -6.5026735e-13 0)
(0.11670669 -7.0719456e-13 0)
(0.11670669 -6.2774136e-13 0)
(0.11670669 -7.3097763e-13 0)
(0.11670669 -6.510714e-13 0)
(0.11670669 -7.481578e-13 0)
(0.11670669 -5.451363e-13 0)
(0.11670669 -5.0136427e-13 0)
(0.11670669 -2.7617662e-13 0)
(0.11670669 -3.5986424e-13 0)
(0.11670669 -3.6127748e-13 0)
(0.11670669 -3.3689327e-13 0)
(0.11670669 1.190824e-13 0)
(0.11670669 5.1821491e-13 0)
(0.11670669 1.0648257e-12 0)
(0.11670669 1.3438223e-12 0)
(0.11670669 1.340053e-12 0)
(0.11670669 1.1694703e-12 0)
(0.11670669 1.1043827e-12 0)
(0.11670669 1.0937027e-12 0)
(0.11670669 1.0304849e-12 0)
(0.11670669 6.3151143e-13 0)
(0.11670669 1.8917912e-13 0)
(0.11670669 -4.7694368e-13 0)
(0.11670669 -1.095484e-12 0)
(0.11670669 -1.2731023e-12 0)
(0.11670669 -9.7828999e-13 0)
(0.11670669 -3.3755898e-13 0)
(0.11670669 2.755392e-13 0)
(0.11670669 8.6978579e-13 0)
(0.11670669 1.0674533e-12 0)
(0.11670669 7.5070318e-13 0)
(0.11670669 1.8555956e-13 0)
(0.11670669 -4.6071431e-13 0)
(0.11670669 -9.4322884e-13 0)
(0.11670669 -1.2508391e-12 0)
(0.11670669 -1.1387411e-12 0)
(0.11670669 -9.3801676e-13 0)
(0.11670669 -8.0455183e-13 0)
(0.11670669 -9.2941997e-13 0)
(0.11670669 -1.0294564e-12 0)
(0.11670669 -8.6970685e-13 0)
(0.11670669 -3.3103099e-13 0)
(0.11670669 1.3892281e-13 0)
(0.11670669 6.4945622e-13 0)
(0.11670669 8.9949732e-13 0)
(0.11670669 1.05625e-12 0)
(0.11670669 9.2814099e-13 0)
(0.11670669 7.531748e-13 0)
(0.11670669 2.4875213e-13 0)
(0.11670669 -1.7598051e-13 0)
(0.11670669 -6.5868811e-13 0)
(0.11670669 -8.2917981e-13 0)
(0.11670669 -7.106546e-13 0)
(0.11670669 -5.0506123e-13 0)
(0.11670669 -2.9027362e-13 0)
(0.11670669 -1.7147137e-13 0)
(0.11670669 -1.8507627e-13 0)
(0.11670669 -3.7947894e-13 0)
(0.11670669 -5.7519594e-13 0)
(0.11670669 -6.2777102e-13 0)
(0.11670669 -2.1712181e-13 0)
(0.11670669 1.660493e-13 0)
(0.11670669 9.032759e-13 0)
(0.11670669 1.3022572e-12 0)
(0.11670669 1.2053475e-12 0)
(0.11670669 6.1421894e-13 0)
(0.11670669 -8.7600445e-14 0)
(0.11670669 -7.2465169e-13 0)
(0.11670669 -9.943077e-13 0)
(0.11670669 -9.678331e-13 0)
(0.11670669 -7.5180195e-13 0)
(0.11670669 -6.1341894e-13 0)
(0.11670669 -5.098472e-13 0)
(0.11670669 -4.4433929e-13 0)
(0.11670669 -4.3220329e-13 0)
(0.11670669 -5.4639287e-13 0)
(0.11670669 -8.1971196e-13 0)
(0.11670669 -1.0411538e-12 0)
(0.11670669 -1.0142885e-12 0)
(0.11670669 -5.3204834e-13 0)
(0.11670669 -1.1433401e-13 0)
(0.11670669 4.4668868e-13 0)
(0.11670669 8.0004207e-13 0)
(0.11670669 8.4566607e-13 0)
(0.11670669 6.049181e-13 0)
(0.11670669 4.0113143e-13 0)
(0.11670669 2.8675058e-13 0)
(0.11670669 3.7771452e-13 0)
(0.11670669 6.851587e-13 0)
(0.11670669 9.3122559e-13 0)
(0.11670669 8.3885212e-13 0)
(0.11670669 3.8610342e-13 0)
(0.11670669 -7.187627e-14 0)
(0.11670669 -5.9227122e-13 0)
(0.11670669 -7.6513435e-13 0)
(0.11670669 -6.7691552e-13 0)
(0.11670669 -3.8895528e-13 0)
(0.11670669 -2.486706e-13 0)
(0.11670669 -1.5646048e-13 0)
(0.11670669 -2.4931027e-13 0)
(0.11670669 -3.0920238e-13 0)
(0.11670669 -2.8891757e-13 0)
(0.11670669 -1.5421479e-13 0)
(0.11670669 -3.3979152e-13 0)
(0.11670669 -7.680782e-13 0)
(0.11670669 -8.5273212e-13 0)
(0.11670669 4.0743778e-14 0)
(0.11670669 4.8732648e-13 0)
(0.50390834 0.19019022 0)
(0.4384704 0.050431505 0)
(0.29767008 0.02205531 0)
(0.25944374 0.01078009 0)
(0.22598939 0.0055621278 0)
(0.21213187 0.0032307867 0)
(0.20205719 0.0017732785 0)
(0.19716897 0.0010457285 0)
(0.19394744 0.00057678792 0)
(0.19230772 0.00033133057 0)
(0.19130242 0.00017832923 0)
(0.19079327 9.7728385e-05 0)
(0.19050201 4.9925273e-05 0)
(0.1903612 2.5328442e-05 0)
(0.19028762 1.1621391e-05 0)
(0.19025609 4.9697558e-06 0)
(0.1902425 1.5969347e-06 0)
(0.19023894 1.7378054e-07 0)
(0.19023899 -3.9970268e-07 0)
(0.19024063 -5.2250118e-07 0)
(0.19024241 -4.8501516e-07 0)
(0.19024402 -3.8492945e-07 0)
(0.19024524 -2.8494057e-07 0)
(0.19024615 -1.9933518e-07 0)
(0.19024677 -1.3486073e-07 0)
(0.19024719 -8.8365042e-08 0)
(0.19024746 -5.6617984e-08 0)
(0.19024763 -3.5457162e-08 0)
(0.19024774 -2.1802586e-08 0)
(0.1902478 -1.3144667e-08 0)
(0.19024784 -7.7830521e-09 0)
(0.19024787 -4.5174048e-09 0)
(0.19024788 -2.571447e-09 0)
(0.19024789 -1.4316213e-09 0)
(0.19024789 -7.7794283e-10 0)
(0.19024789 -4.0955261e-10 0)
(0.1902479 -2.0667935e-10 0)
(0.1902479 -9.844793e-11 0)
(0.1902479 -4.3996311e-11 0)
(0.1902479 -1.7807715e-11 0)
(0.1902479 -5.547708e-12 0)
(0.1902479 2.7152654e-13 0)
(0.1902479 2.6993416e-12 0)
(0.1902479 2.7302026e-12 0)
(0.1902479 9.856178e-13 0)
(0.1902479 -2.5748447e-13 0)
(0.1902479 -6.8933594e-13 0)
(0.1902479 -2.0791233e-13 0)
(0.1902479 3.8016611e-13 0)
(0.1902479 5.4398362e-13 0)
(0.1902479 1.7615881e-13 0)
(0.1902479 -1.9887393e-14 0)
(0.1902479 -6.0897841e-13 0)
(0.1902479 -5.9779473e-13 0)
(0.1902479 -2.5567837e-13 0)
(0.1902479 3.3650275e-13 0)
(0.1902479 7.6970263e-13 0)
(0.1902479 9.4245968e-13 0)
(0.1902479 9.2205726e-13 0)
(0.1902479 7.1682305e-13 0)
(0.1902479 5.3654889e-13 0)
(0.1902479 6.6040543e-13 0)
(0.1902479 9.04184e-13 0)
(0.1902479 1.1258571e-12 0)
(0.1902479 1.3602687e-12 0)
(0.1902479 1.4104388e-12 0)
(0.1902479 1.4416483e-12 0)
(0.1902479 1.2711194e-12 0)
(0.1902479 1.1075053e-12 0)
(0.1902479 9.6394601e-13 0)
(0.1902479 9.6009159e-13 0)
(0.1902479 9.5261476e-13 0)
(0.1902479 8.3368437e-13 0)
(0.1902479 8.386194e-13 0)
(0.1902479 7.993777e-13 0)
(0.1902479 8.3423862e-13 0)
(0.1902479 8.3418576e-13 0)
(0.1902479 8.2507352e-13 0)
(0.1902479 8.2142622e-13 0)
(0.1902479 7.4856558e-13 0)
(0.1902479 7.4307244e-13 0)
(0.1902479 6.4921276e-13 0)
(0.1902479 6.9067932e-13 0)
(0.1902479 6.1825928e-13 0)
(0.1902479 6.6327271e-13 0)
(0.1902479 4.8123709e-13 0)
(0.1902479 5.2273873e-13 0)
(0.1902479 4.5215039e-13 0)
(0.1902479 8.1664209e-13 0)
(0.1902479 7.7381744e-13 0)
(0.1902479 6.9087874e-13 0)
(0.1902479 -2.571854e-14 0)
(0.1902479 -5.0287167e-13 0)
(0.1902479 -1.2757052e-12 0)
(0.1902479 -1.4406134e-12 0)
(0.1902479 -1.6495858e-12 0)
(0.1902479 -1.3165023e-12 0)
(0.1902479 -1.2900056e-12 0)
(0.1902479 -1.0508822e-12 0)
(0.1902479 -1.0956703e-12 0)
(0.1902479 -9.1902922e-13 0)
(0.1902479 -9.4790399e-13 0)
(0.1902479 -8.0458938e-13 0)
(0.1902479 -7.7570859e-13 0)
(0.1902479 -6.2215474e-13 0)
(0.1902479 -9.0200138e-13 0)
(0.1902479 -1.2941013e-12 0)
(0.1902479 -1.9475832e-12 0)
(0.1902479 -2.336947e-12 0)
(0.1902479 -2.3023095e-12 0)
(0.1902479 -2.0747758e-12 0)
(0.1902479 -1.2704766e-12 0)
(0.1902479 -9.2262439e-13 0)
(0.1902479 -5.3881487e-13 0)
(0.1902479 -5.0007079e-13 0)
(0.1902479 -5.7359759e-13 0)
(0.1902479 -6.9670301e-13 0)
(0.1902479 -7.2304188e-13 0)
(0.1902479 -7.7900233e-13 0)
(0.1902479 -6.3516946e-13 0)
(0.1902479 -7.1769084e-13 0)
(0.1902479 -5.8133822e-13 0)
(0.1902479 -7.7383505e-13 0)
(0.1902479 -6.4831946e-13 0)
(0.1902479 -8.0930642e-13 0)
(0.1902479 -6.2000279e-13 0)
(0.1902479 -7.1491041e-13 0)
(0.1902479 -5.2268201e-13 0)
(0.1902479 -6.0355063e-13 0)
(0.1902479 -4.2614432e-13 0)
(0.1902479 -4.9259866e-13 0)
(0.1902479 -3.2205733e-13 0)
(0.1902479 -3.7774981e-13 0)
(0.1902479 -2.2302074e-13 0)
(0.1902479 -2.7328897e-13 0)
(0.1902479 -1.3216212e-13 0)
(0.1902479 -1.6989632e-13 0)
(0.1902479 -4.7637489e-14 0)
(0.1902479 -7.2060556e-14 0)
(0.1902479 1.4390461e-14 0)
(0.1902479 -1.2940783e-14 0)
(0.1902479 2.975085e-14 0)
(0.1902479 2.4476456e-14 0)
(0.1902479 3.3625815e-14 0)
(0.1902479 1.8102093e-14 0)
(0.1902479 -3.6771556e-14 0)
(0.1902479 1.4336835e-14 0)
(0.1902479 -1.6519886e-15 0)
(0.1902479 -1.2924138e-14 0)
(0.1902479 -3.0751337e-13 0)
(0.1902479 -4.6084892e-13 0)
(0.1902479 -5.3696375e-13 0)
(0.1902479 1.0772273e-13 0)
(0.1902479 5.6250709e-13 0)
(0.1902479 1.3464113e-12 0)
(0.1902479 1.542434e-12 0)
(0.1902479 1.6038952e-12 0)
(0.1902479 1.1824101e-12 0)
(0.1902479 1.0561981e-12 0)
(0.1902479 6.2199162e-13 0)
(0.1902479 5.8002535e-13 0)
(0.1902479 2.0143146e-13 0)
(0.1902479 2.0728627e-13 0)
(0.1902479 7.8453779e-14 0)
(0.1902479 3.0543638e-13 0)
(0.1902479 2.538951e-13 0)
(0.1902479 3.9938717e-13 0)
(0.1902479 3.1530873e-13 0)
(0.1902479 3.9361622e-13 0)
(0.1902479 2.4239512e-13 0)
(0.1902479 2.6407383e-13 0)
(0.1902479 2.3681865e-13 0)
(0.1902479 5.4233352e-13 0)
(0.1902479 6.8111048e-13 0)
(0.1902479 6.5622738e-13 0)
(0.1902479 1.1367804e-13 0)
(0.1902479 -3.6712066e-13 0)
(0.1902479 -9.933686e-13 0)
(0.1902479 -1.2744906e-12 0)
(0.1902479 -1.3263799e-12 0)
(0.1902479 -1.0605879e-12 0)
(0.1902479 -9.1046127e-13 0)
(0.1902479 -7.332763e-13 0)
(0.1902479 -7.318371e-13 0)
(0.1902479 -7.2074732e-13 0)
(0.1902479 -7.5282094e-13 0)
(0.1902479 -7.6997907e-13 0)
(0.1902479 -7.9761326e-13 0)
(0.1902479 -8.6250463e-13 0)
(0.1902479 -8.7040338e-13 0)
(0.1902479 -9.424e-13 0)
(0.1902479 -8.7353612e-13 0)
(0.1902479 -9.5454507e-13 0)
(0.1902479 -8.435565e-13 0)
(0.1902479 -9.8362077e-13 0)
(0.1902479 -8.6714578e-13 0)
(0.1902479 -9.9645408e-13 0)
(0.1902479 -7.2295834e-13 0)
(0.1902479 -6.7286097e-13 0)
(0.1902479 -3.5672411e-13 0)
(0.1902479 -4.4383629e-13 0)
(0.1902479 -3.8990096e-13 0)
(0.1902479 -3.7494075e-13 0)
(0.1902479 1.6016354e-13 0)
(0.1902479 6.1008995e-13 0)
(0.1902479 1.2522238e-12 0)
(0.1902479 1.565522e-12 0)
(0.1902479 1.5939026e-12 0)
(0.1902479 1.4256289e-12 0)
(0.1902479 1.3736318e-12 0)
(0.1902479 1.3615455e-12 0)
(0.1902479 1.2829471e-12 0)
(0.1902479 8.3402588e-13 0)
(0.1902479 2.899154e-13 0)
(0.1902479 -5.0891263e-13 0)
(0.1902479 -1.2488296e-12 0)
(0.1902479 -1.5027088e-12 0)
(0.1902479 -1.2183418e-12 0)
(0.1902479 -4.8290124e-13 0)
(0.1902479 2.4251553e-13 0)
(0.1902479 9.4436457e-13 0)
(0.1902479 1.2115488e-12 0)
(0.1902479 8.9080229e-13 0)
(0.1902479 2.5006267e-13 0)
(0.1902479 -5.1209898e-13 0)
(0.1902479 -1.0575336e-12 0)
(0.1902479 -1.4296641e-12 0)
(0.1902479 -1.3188259e-12 0)
(0.1902479 -1.1356131e-12 0)
(0.1902479 -9.7561898e-13 0)
(0.1902479 -1.1286628e-12 0)
(0.1902479 -1.206958e-12 0)
(0.1902479 -1.0364779e-12 0)
(0.1902479 -4.1987938e-13 0)
(0.1902479 1.3101896e-13 0)
(0.1902479 7.423529e-13 0)
(0.1902479 1.0297113e-12 0)
(0.1902479 1.2673612e-12 0)
(0.1902479 1.149479e-12 0)
(0.1902479 9.638735e-13 0)
(0.1902479 3.5854641e-13 0)
(0.1902479 -1.331196e-13 0)
(0.1902479 -7.0190911e-13 0)
(0.1902479 -9.0643687e-13 0)
(0.1902479 -8.0146897e-13 0)
(0.1902479 -5.87942e-13 0)
(0.1902479 -3.2580006e-13 0)
(0.1902479 -1.8742143e-13 0)
(0.1902479 -2.006459e-13 0)
(0.1902479 -4.3812456e-13 0)
(0.1902479 -6.7473689e-13 0)
(0.1902479 -7.6442661e-13 0)
(0.1902479 -3.079471e-13 0)
(0.1902479 1.4228094e-13 0)
(0.1902479 1.0086994e-12 0)
(0.1902479 1.4791152e-12 0)
(0.1902479 1.4339801e-12 0)
(0.1902479 7.4821228e-13 0)
(0.1902479 -5.0122222e-14 0)
(0.1902479 -8.0228784e-13 0)
(0.1902479 -1.1221388e-12 0)
(0.1902479 -1.1398499e-12 0)
(0.1902479 -9.2188445e-13 0)
(0.1902479 -7.7104253e-13 0)
(0.1902479 -6.5173273e-13 0)
(0.1902479 -5.7304338e-13 0)
(0.1902479 -5.5530352e-13 0)
(0.1902479 -6.7858995e-13 0)
(0.1902479 -1.0039823e-12 0)
(0.1902479 -1.2622654e-12 0)
(0.1902479 -1.2482976e-12 0)
(0.1902479 -7.0932007e-13 0)
(0.1902479 -1.9950016e-13 0)
(0.1902479 4.7064689e-13 0)
(0.1902479 8.843633e-13 0)
(0.1902479 9.8265313e-13 0)
(0.1902479 7.3801614e-13 0)
(0.1902479 5.2182892e-13 0)
(0.1902479 3.8894767e-13 0)
(0.1902479 5.007185e-13 0)
(0.1902479 8.5969132e-13 0)
(0.1902479 1.146979e-12 0)
(0.1902479 1.0466918e-12 0)
(0.1902479 5.3887843e-13 0)
(0.1902479 -1.7806558e-14 0)
(0.1902479 -6.3063681e-13 0)
(0.1902479 -8.3512905e-13 0)
(0.1902479 -7.8651272e-13 0)
(0.1902479 -4.6579736e-13 0)
(0.1902479 -3.2588128e-13 0)
(0.1902479 -2.0744385e-13 0)
(0.1902479 -3.2606226e-13 0)
(0.1902479 -3.7599711e-13 0)
(0.1902479 -3.6577694e-13 0)
(0.1902479 -1.9805696e-13 0)
(0.1902479 -4.3519334e-13 0)
(0.1902479 -9.2769251e-13 0)
(0.1902479 -1.0361302e-12 0)
(0.1902479 3.582863e-14 0)
(0.1902479 5.3753239e-13 0)
(0.59346672 0.2146733 0)
(0.54593347 0.075998403 0)
(0.39702192 0.039312285 0)
(0.34953973 0.019720542 0)
(0.30792187 0.010726721 0)
(0.28963523 0.006158364 0)
(0.27651264 0.0034761722 0)
(0.26994405 0.0020290928 0)
(0.26565503 0.0011409798 0)
(0.26342423 0.00065139893 0)
(0.26206335 0.00035632915 0)
(0.26136077 0.00019487263 0)
(0.26095907 0.00010129534 0)
(0.26076048 5.1593394e-05 0)
(0.260656 2.4318169e-05 0)
(0.26060945 1.0645768e-05 0)
(0.26058866 3.76202e-06 0)
(0.26058217 7.1268682e-07 0)
(0.26058122 -5.4194437e-07 0)
(0.26058278 -8.8379693e-07 0)
(0.2605848 -8.6433593e-07 0)
(0.26058673 -7.0545974e-07 0)
(0.26058825 -5.2974972e-07 0)
(0.26058939 -3.749388e-07 0)
(0.26059018 -2.5559227e-07 0)
(0.26059072 -1.686791e-07 0)
(0.26059108 -1.0866375e-07 0)
(0.2605913 -6.842236e-08 0)
(0.26059144 -4.2266957e-08 0)
(0.26059153 -2.5609593e-08 0)
(0.26059159 -1.5237952e-08 0)
(0.26059162 -8.892955e-09 0)
(0.26059163 -5.0898515e-09 0)
(0.26059165 -2.8507439e-09 0)
(0.26059165 -1.5590402e-09 0)
(0.26059165 -8.2743845e-10 0)
(0.26059166 -4.222546e-10 0)
(0.26059166 -2.0431918e-10 0)
(0.26059166 -9.2520275e-11 0)
(0.26059166 -3.7274116e-11 0)
(0.26059166 -1.0933992e-11 0)
(0.26059166 1.3673396e-12 0)
(0.26059166 5.937136e-12 0)
(0.26059166 6.033263e-12 0)
(0.26059166 3.661615e-12 0)
(0.26059166 2.0246054e-12 0)
(0.26059166 1.4380566e-12 0)
(0.26059166 1.7544496e-12 0)
(0.26059166 2.0602296e-12 0)
(0.26059166 2.0744059e-12 0)
(0.26059166 1.3890442e-12 0)
(0.26059166 9.0062576e-13 0)
(0.26059166 2.4294422e-13 0)
(0.26059166 2.80871e-13 0)
(0.26059166 6.1726241e-13 0)
(0.26059166 1.081864e-12 0)
(0.26059166 1.2745334e-12 0)
(0.26059166 1.1281294e-12 0)
(0.26059166 7.2121923e-13 0)
(0.26059166 2.7671951e-13 0)
(0.26059166 1.1150665e-14 0)
(0.26059166 1.4546966e-13 0)
(0.26059166 5.0355621e-13 0)
(0.26059166 7.7529207e-13 0)
(0.26059166 1.0627206e-12 0)
(0.26059166 1.0658654e-12 0)
(0.26059166 1.0913826e-12 0)
(0.26059166 7.8963097e-13 0)
(0.26059166 6.1313035e-13 0)
(0.26059166 3.4306153e-13 0)
(0.26059166 4.2160599e-13 0)
(0.26059166 3.3871757e-13 0)
(0.26059166 3.526445e-13 0)
(0.26059166 2.8014138e-13 0)
(0.26059166 3.6799296e-13 0)
(0.26059166 3.0252661e-13 0)
(0.26059166 4.205605e-13 0)
(0.26059166 3.2243028e-13 0)
(0.26059166 4.4022189e-13 0)
(0.26059166 2.729064e-13 0)
(0.26059166 3.7187189e-13 0)
(0.26059166 1.6809131e-13 0)
(0.26059166 3.134318e-13 0)
(0.26059166 1.1408302e-13 0)
(0.26059166 2.4832704e-13 0)
(0.26059166 -4.8403728e-14 0)
(0.26059166 1.165434e-13 0)
(0.26059166 -5.7744124e-15 0)
(0.26059166 4.3395956e-13 0)
(0.26059166 2.3256767e-13 0)