/*--------------------------------*- C++ -*----------------------------------*\
| =========                 |                                                 |
| \\      /  F ield         | OpenFOAM: The Open Source CFD Toolbox           |
|  \\    /   O peration     | Version:  2206                                  |
|   \\  /    A nd           | Website:  www.openfoam.com                      |
|    \\/     M anipulation  |                                                 |
\*---------------------------------------------------------------------------*/
FoamFile
{
    version     2.0;
    format      ascii;
    arch        "LSB;label=32;scalar=64";
    class       surfaceScalarField;
    location    "6";
    object      phi;
}
// * * * * * * * * * * * * * * * * * * * * * * * * * * * * * * * * * * * * * //

dimensions      [0 3 -1 0 0 0 0];

oriented        oriented;

internalField   nonuniform List<scalar> 
29650
(
6.0867648e-05
0.00020579915
3.2718169e-05
2.8149476e-05
2.4599021e-05
8.1191458e-06
2.0417849e-05
4.1811711e-06
1.8552178e-05
1.8656696e-06
1.73737e-05
1.1784757e-06
1.6781661e-05
5.9203526e-07
1.6412315e-05
3.6934178e-07
1.6220821e-05
1.9148937e-07
1.6106686e-05
1.1413075e-07
1.6048258e-05
5.842489e-08
1.6015474e-05
3.2782083e-08
1.5999542e-05
1.5931379e-08
1.5991376e-05
8.1655106e-09
1.5987889e-05
3.4873665e-09
1.598644e-05
1.4491483e-09
1.5986091e-05
3.5024415e-10
1.5986138e-05
-4.7512014e-11
1.5986349e-05
-2.1088957e-10
1.5986569e-05
-2.1981073e-10
1.5986762e-05
-1.922718e-10
1.5986908e-05
-1.4616752e-10
1.5987014e-05
-1.0623855e-10
1.5987087e-05
-7.2904844e-11
1.5987136e-05
-4.8835788e-11
1.5987167e-05
-3.1624254e-11
1.5987187e-05
-2.0114364e-11
1.59872e-05
-1.2484677e-11
1.5987208e-05
-7.6268288e-12
1.5987212e-05
-4.56251e-12
1.5987215e-05
-2.6833915e-12
1.5987216e-05
-1.5443828e-12
1.5987217e-05
-8.7136111e-13
1.5987218e-05
-4.7969982e-13
1.5987218e-05
-2.5716871e-13
1.5987218e-05
-1.328072e-13
1.5987218e-05
-6.4998668e-14
1.5987218e-05
-2.9353156e-14
1.5987218e-05
-1.1480327e-14
1.5987218e-05
-3.0727831e-15
1.5987218e-05
6.8040478e-16
1.5987218e-05
1.8069459e-15
1.5987218e-05
2.051354e-15
1.5987218e-05
1.5724709e-15
1.5987218e-05
1.5312222e-15
1.5987218e-05
1.2236096e-15
1.5987218e-05
1.0900658e-15
1.5987218e-05
4.5391438e-16
1.5987218e-05
3.5870488e-16
1.5987218e-05
-3.4466246e-19
1.5987218e-05
1.244021e-16
1.5987218e-05
1.9803059e-16
1.5987218e-05
5.0819455e-16
1.5987218e-05
5.9060923e-16
1.5987218e-05
7.0398451e-16
1.5987218e-05
5.4059566e-16
1.5987218e-05
4.5491007e-16
1.5987218e-05
2.8610016e-16
1.5987218e-05
3.0491453e-16
1.5987218e-05
2.1711989e-16
1.5987218e-05
3.0751218e-16
1.5987218e-05
3.670697e-16
1.5987218e-05
4.405899e-16
1.5987218e-05
4.9755721e-16
1.5987218e-05
4.9322316e-16
1.5987218e-05
5.824044e-16
1.5987218e-05
5.8155132e-16
1.5987218e-05
5.7150712e-16
1.5987218e-05
4.5763321e-16
1.5987218e-05
3.1390687e-16
1.5987218e-05
-2.931074e-17
1.5987218e-05
-5.8509355e-17
1.5987218e-05
-2.5211442e-16
1.5987218e-05
-2.0571552e-16
1.5987218e-05
-4.420161e-16
1.5987218e-05
-4.2742851e-16
1.5987218e-05
-6.2401224e-16
1.5987218e-05
-4.3216336e-16
1.5987218e-05
-3.7296052e-16
1.5987218e-05
1.4948437e-17
1.5987218e-05
7.5680561e-17
1.5987218e-05
3.1171927e-16
1.5987218e-05
2.6974483e-16
1.5987218e-05
4.4164366e-16
1.5987218e-05
4.149282e-16
1.5987218e-05
5.5361421e-16
1.5987218e-05
4.9818113e-16
1.5987218e-05
5.4039358e-16
1.5987218e-05
4.6190576e-16
1.5987218e-05
4.5906247e-16
1.5987218e-05
3.9377864e-16
1.5987218e-05
3.8837664e-16
1.5987218e-05
3.4548145e-16
1.5987218e-05
3.3709649e-16
1.5987218e-05
2.9114655e-16
1.5987218e-05
2.8392801e-16
1.5987218e-05
2.4191788e-16
1.5987218e-05
2.4848172e-16
1.5987218e-05
2.258678e-16
1.5987218e-05
3.0098497e-16
1.5987218e-05
3.31732e-16
1.5987218e-05
4.550069e-16
1.5987218e-05
3.66572e-16
1.5987218e-05
3.6133486e-16
1.5987218e-05
2.0730676e-16
1.5987218e-05
1.9220154e-16
1.5987218e-05
1.0112425e-16
1.5987218e-05
-1.7674719e-17
1.5987218e-05
-1.4427899e-16
1.5987218e-05
-1.6334519e-16
1.5987218e-05
-9.5921158e-17
1.5987218e-05
8.9031187e-17
1.5987218e-05
2.3819869e-16
1.5987218e-05
4.4605326e-16
1.5987218e-05
5.121176e-16
1.5987218e-05
5.4751843e-16
1.5987218e-05
4.8235626e-16
1.5987218e-05
5.0049773e-16
1.5987218e-05
4.3300639e-16
1.5987218e-05
5.0867411e-16
1.5987218e-05
4.7317561e-16
1.5987218e-05
5.4529616e-16
1.5987218e-05
4.8679936e-16
1.5987218e-05
5.0996227e-16
1.5987218e-05
4.4418996e-16
1.5987218e-05
4.6974163e-16
1.5987218e-05
4.3751644e-16
1.5987218e-05
4.8199666e-16
1.5987218e-05
4.6697162e-16
1.5987218e-05
5.1116934e-16
1.5987218e-05
4.9459796e-16
1.5987218e-05
5.3143541e-16
1.5987218e-05
5.1250502e-16
1.5987218e-05
5.4259505e-16
1.5987218e-05
5.2456163e-16
1.5987218e-05
5.4907807e-16
1.5987218e-05
5.3530825e-16
1.5987218e-05
5.5231791e-16
1.5987218e-05
5.4270111e-16
1.5987218e-05
5.5281382e-16
1.5987218e-05
5.5021294e-16
1.5987218e-05
5.5740348e-16
1.5987218e-05
5.6092701e-16
1.5987218e-05
5.588196e-16
1.5987218e-05
5.6247838e-16
1.5987218e-05
5.5659467e-16
1.5987218e-05
5.7091311e-16
1.5987218e-05
5.5657176e-16
1.5987218e-05
5.4953871e-16
1.5987218e-05
5.035878e-16
1.5987218e-05
5.1555303e-16
1.5987218e-05
5.3341571e-16
1.5987218e-05
5.8294138e-16
1.5987218e-05
5.1730945e-16
1.5987218e-05
3.4535948e-16
1.5987218e-05
9.9279902e-17
1.5987218e-05
-1.4436839e-16
1.5987218e-05
-2.4482074e-16
1.5987218e-05
-2.800888e-16
1.5987218e-05
-2.7973199e-16
1.5987218e-05
-3.8720853e-16
1.5987218e-05
-4.5279117e-16
1.5987218e-05
-5.06935e-16
1.5987218e-05
-4.0850895e-16
1.5987218e-05
-2.107514e-16
1.5987218e-05
1.6159943e-17
1.5987218e-05
2.0445438e-16
1.5987218e-05
2.8615376e-16
1.5987218e-05
3.6616045e-16
1.5987218e-05
4.2406952e-16
1.5987218e-05
5.0589288e-16
1.5987218e-05
5.3307437e-16
1.5987218e-05
5.5857468e-16
1.5987218e-05
5.4369513e-16
1.5987218e-05
5.4478357e-16
1.5987218e-05
5.3158229e-16
1.5987218e-05
5.4161749e-16
1.5987218e-05
5.4181165e-16
1.5987218e-05
5.6148415e-16
1.5987218e-05
5.6926636e-16
1.5987218e-05
5.862222e-16
1.5987218e-05
5.9247897e-16
1.5987218e-05
6.1152828e-16
1.5987218e-05
6.2171196e-16
1.5987218e-05
6.4581458e-16
1.5987218e-05
6.4232037e-16
1.5987218e-05
6.6777953e-16
1.5987218e-05
6.5783362e-16
1.5987218e-05
7.1333603e-16
1.5987218e-05
6.9922595e-16
1.5987218e-05
7.8106489e-16
1.5987218e-05
7.4082312e-16
1.5987218e-05
8.425185e-16
1.5987218e-05
7.788081e-16
1.5987218e-05
9.0671418e-16
1.5987218e-05
8.0564174e-16
1.5987218e-05
9.2589568e-16
1.5987218e-05
7.6182314e-16
1.5987218e-05
8.231379e-16
1.5987218e-05
5.8360147e-16
1.5987218e-05
5.3993424e-16
1.5987218e-05
2.9927912e-16
1.5987218e-05
3.7643374e-16
1.5987218e-05
2.7069181e-16
1.5987218e-05
4.1141772e-16
1.5987218e-05
2.3025797e-16
1.5987218e-05
1.4195802e-16
1.5987218e-05
-1.9227727e-16
1.5987218e-05
-3.4219729e-16
1.5987218e-05
-6.0022649e-16
1.5987218e-05
-5.6576422e-16
1.5987218e-05
-5.6083612e-16
1.5987218e-05
-3.1118905e-16
1.5987218e-05
-1.6403926e-16
1.5987218e-05
8.4368203e-17
1.5987218e-05
1.8683245e-16
1.5987218e-05
4.4370091e-16
1.5987218e-05
5.3102894e-16
1.5987218e-05
5.7058457e-16
1.5987218e-05
3.3608395e-16
1.5987218e-05
1.5654715e-16
1.5987218e-05
-9.9765943e-17
1.5987218e-05
-1.999437e-16
1.5987218e-05
-4.0140008e-16
1.5987218e-05
-5.6941415e-16
1.5987218e-05
-7.2395169e-16
1.5987218e-05
-6.6309373e-16
1.5987218e-05
-5.5595498e-16
1.5987218e-05
-2.9177787e-16
1.5987218e-05
-9.4444061e-17
1.5987218e-05
1.2217765e-16
1.5987218e-05
2.2181433e-16
1.5987218e-05
2.6940194e-16
1.5987218e-05
1.1068482e-16
1.5987218e-05
-5.498462e-17
1.5987218e-05
-2.4000081e-16
1.5987218e-05
-3.1305619e-16
1.5987218e-05
-4.2953798e-16
1.5987218e-05
-5.6057715e-16
1.5987218e-05
-7.0345057e-16
1.5987218e-05
-7.1213266e-16
1.5987218e-05
-5.4806281e-16
1.5987218e-05
-2.9176567e-16
1.5987218e-05
-1.9711365e-17
1.5987218e-05
5.9537769e-17
1.5987218e-05
2.550561e-17
1.5987218e-05
-1.799161e-16
1.5987218e-05
-3.353824e-16
1.5987218e-05
-4.9374393e-16
1.5987218e-05
-4.0878758e-16
1.5987218e-05
-2.7206064e-16
1.5987218e-05
1.4866754e-18
1.5987218e-05
1.176628e-16
1.5987218e-05
1.6651258e-16
1.5987218e-05
3.3521989e-17
1.5987218e-05
-3.8146963e-17
1.5987218e-05
-2.1282963e-16
1.5987218e-05
-2.7621053e-16
1.5987218e-05
-3.9941315e-16
1.5987218e-05
-3.9429478e-16
1.5987218e-05
-3.9516853e-16
1.5987218e-05
-1.8025792e-16
1.5987218e-05
-7.8727323e-18
1.5987218e-05
1.8571184e-16
1.5987218e-05
1.3463315e-16
1.5987218e-05
7.8080371e-17
1.5987218e-05
-2.2916613e-16
1.5987218e-05
-3.5118396e-16
1.5987218e-05
-5.1062398e-16
1.5987218e-05
-3.4692877e-16
1.5987218e-05
-3.0307639e-16
1.5987218e-05
-2.9320125e-17
1.5987218e-05
-7.2489061e-17
1.5987218e-05
7.5487961e-17
1.5987218e-05
-4.2975895e-17
1.5987218e-05
2.9008651e-18
1.5987218e-05
-1.6980805e-16
1.5987218e-05
-1.5997424e-17
1.5987218e-05
3.5570873e-17
1.5987218e-05
3.0144936e-16
1.5987218e-05
3.9667236e-16
1.5987218e-05
3.9423344e-16
1.5987218e-05
2.0808345e-16
1.5987218e-05
2.0135961e-17
1.5987218e-05
-7.8303586e-17
1.5987218e-05
-3.7379958e-17
1.5987218e-05
1.0332865e-16
1.5987218e-05
1.951298e-16
1.5987218e-05
2.8893999e-16
1.5987218e-05
2.7851655e-16
1.5987218e-05
3.3693256e-16
1.5987218e-05
3.9187017e-16
1.5987218e-05
5.2243486e-16
1.5987218e-05
5.1430968e-16
1.5987218e-05
5.1087143e-16
1.5987218e-05
4.9690884e-16
1.5987218e-05
6.4610743e-16
1.5987218e-05
6.3804323e-16
1.5987218e-05
3.3124564e-16
-3.1011924e-17
0.00014027132
0.00033219463
9.2549243e-05
7.5871547e-05
7.0338072e-05
3.0330316e-05
5.9620314e-05
1.4898933e-05
5.4019642e-05
7.4663455e-06
5.0795344e-05
4.4027775e-06
4.901105e-05
2.3763291e-06
4.7964745e-05
1.4156438e-06
4.7384384e-05
7.7184529e-07
4.7052234e-05
4.4627628e-07
4.6872682e-05
2.3797163e-07
4.677453e-05
1.3093009e-07
4.6724187e-05
6.6272643e-08
4.6698685e-05
3.3665801e-08
4.6686924e-05
1.5247472e-08
4.6681893e-05
6.4812678e-09
4.6680252e-05
1.9914928e-09
4.6680058e-05
1.4681554e-10
4.6680445e-05
-5.9724377e-10
4.6680961e-05
-7.3613152e-10
4.6681443e-05
-6.7355357e-10
4.6681826e-05
-5.2943014e-10
4.668211e-05
-3.9027015e-10
4.6682309e-05
-2.7191716e-10
4.6682444e-05
-1.8360165e-10
4.6682532e-05
-1.2003636e-10
4.6682589e-05
-7.6810018e-11
4.6682624e-05
-4.8024156e-11
4.6682646e-05
-2.949639e-11
4.6682659e-05
-1.7761508e-11
4.6682667e-05
-1.0509466e-11
4.6682672e-05
-6.0933824e-12
4.6682674e-05
-3.463508e-12
4.6682676e-05
-1.9233873e-12
4.6682676e-05
-1.0415391e-12
4.6682677e-05
-5.4517846e-13
4.6682677e-05
-2.7320004e-13
4.6682677e-05
-1.2777119e-13
4.6682677e-05
-5.3757917e-14
4.6682677e-05
-1.7648825e-14
4.6682677e-05
-1.6773001e-15
4.6682677e-05
4.3102766e-15
4.6682677e-05
5.3258043e-15
4.6682677e-05
4.8946261e-15
4.6682677e-05
4.6544019e-15
4.6682677e-05
4.1572342e-15
4.6682677e-05
3.2140693e-15
4.6682677e-05
1.699557e-15
4.6682677e-05
2.9076827e-16
4.6682677e-05
-2.4105834e-16
4.6682677e-05
-5.3070761e-16
4.6682677e-05
1.0445019e-17
4.6682677e-05
4.5699775e-16
4.6682677e-05
1.0103294e-15
4.6682677e-05
1.188549e-15
4.6682677e-05
1.1673274e-15
4.6682677e-05
8.986267e-16
4.6682677e-05
1.0377091e-15
4.6682677e-05
5.3560781e-16
4.6682677e-05
7.4804844e-16
4.6682677e-05
4.4191478e-16
4.6682677e-05
8.787306e-16
4.6682677e-05
8.2523845e-16
4.6682677e-05
1.1717182e-15
4.6682677e-05
1.0073243e-15
4.6682677e-05
1.3008759e-15
4.6682677e-05
1.2345298e-15
4.6682677e-05
1.1748119e-15
4.6682677e-05
6.7541147e-16
4.6682677e-05
4.9549342e-16
4.6682677e-05
-4.8883171e-16
4.6682677e-05
-1.4807018e-16
4.6682677e-05
-6.1581583e-16
4.6682677e-05
-2.529937e-16
4.6682677e-05
-9.0899891e-16
4.6682677e-05
-7.6885567e-16
4.6682677e-05
-1.3478096e-15
4.6682677e-05
-7.5252155e-16
4.6682677e-05
-6.258943e-16
4.6682677e-05
3.9167819e-16
4.6682677e-05
3.626849e-16
4.6682677e-05
8.6982081e-16
4.6682677e-05
4.4102627e-16
4.6682677e-05
8.753318e-16
4.6682677e-05
6.252983e-16
4.6682677e-05
1.1060519e-15
4.6682677e-05
8.591988e-16
4.6682677e-05
1.1410647e-15
4.6682677e-05
8.2625825e-16
4.6682677e-05
9.7924678e-16
4.6682677e-05
6.8940154e-16
4.6682677e-05
8.2295545e-16
4.6682677e-05
6.0127543e-16
4.6682677e-05
7.1072376e-16
4.6682677e-05
4.9594148e-16
4.6682677e-05
6.0322438e-16
4.6682677e-05
4.2326447e-16
4.6682677e-05
5.1403897e-16
4.6682677e-05
3.8371115e-16
4.6682677e-05
6.284744e-16
4.6682677e-05
6.8860465e-16
4.6682677e-05
9.7039422e-16
4.6682677e-05
6.6035684e-16
4.6682677e-05
5.4859985e-16
4.6682677e-05
1.0505707e-16
4.6682677e-05
1.8284517e-16
4.6682677e-05
2.6793319e-16
4.6682677e-05
2.3219757e-16
4.6682677e-05
6.7289433e-17
4.6682677e-05
-3.0257718e-17
4.6682677e-05
-3.1054228e-17
4.6682677e-05
1.621816e-16
4.6682677e-05
3.6438654e-16
4.6682677e-05
7.7218252e-16
4.6682677e-05
9.4883453e-16
4.6682677e-05
1.0884525e-15
4.6682677e-05
9.6651357e-16
4.6682677e-05
9.8587137e-16
4.6682677e-05
8.5551947e-16
4.6682677e-05
9.8444918e-16
4.6682677e-05
9.4373496e-16
4.6682677e-05
1.0828719e-15
4.6682677e-05
9.9638249e-16
4.6682677e-05
1.0170679e-15
4.6682677e-05
8.7878518e-16
4.6682677e-05
8.9415832e-16
4.6682677e-05
8.2352989e-16
4.6682677e-05
9.002428e-16
4.6682677e-05
8.7565801e-16
4.6682677e-05
9.6350044e-16
4.6682677e-05
9.3422747e-16
4.6682677e-05
1.0084905e-15
4.6682677e-05
9.6900649e-16
4.6682677e-05
1.0304348e-15
4.6682677e-05
9.9011242e-16
4.6682677e-05
1.0429492e-15
4.6682677e-05
1.0090823e-15
4.6682677e-05
1.0498866e-15
4.6682677e-05
1.0187929e-15
4.6682677e-05
1.0516421e-15
4.6682677e-05
1.034206e-15
4.6682677e-05
1.0672391e-15
4.6682677e-05
1.0602486e-15
4.6682677e-05
1.0773974e-15
4.6682677e-05
1.0661549e-15
4.6682677e-05
1.0852931e-15
4.6682677e-05
1.1026193e-15
4.6682677e-05
1.1004788e-15
4.6682677e-05
1.0520239e-15
4.6682677e-05
9.7092104e-16
4.6682677e-05
1.0024031e-15
4.6682677e-05
1.0984246e-15
4.6682677e-05
1.1920406e-15
4.6682677e-05
1.0267365e-15
4.6682677e-05
4.9048121e-16
4.6682677e-05
-1.1069007e-16
4.6682677e-05
-6.3194778e-16
4.6682677e-05
-7.2255763e-16
4.6682677e-05
-5.5978762e-16
4.6682677e-05
-5.0118397e-16
4.6682677e-05
-7.1648548e-16
4.6682677e-05
-9.30535e-16
4.6682677e-05
-1.0405722e-15
4.6682677e-05
-7.9249094e-16
4.6682677e-05
-2.0854238e-16
4.6682677e-05
2.7512593e-16
4.6682677e-05
6.2970794e-16
4.6682677e-05
6.5945147e-16
4.6682677e-05
6.8541563e-16
4.6682677e-05
7.7498141e-16
4.6682677e-05
9.3282679e-16
4.6682677e-05
1.0313978e-15
4.6682677e-05
1.0990451e-15
4.6682677e-05
1.0900347e-15
4.6682677e-05
1.0910212e-15
4.6682677e-05
1.0629913e-15
4.6682677e-05
1.0798166e-15
4.6682677e-05
1.0722198e-15
4.6682677e-05
1.1137757e-15
4.6682677e-05
1.122326e-15
4.6682677e-05
1.1536421e-15
4.6682677e-05
1.1625789e-15
4.6682677e-05
1.191269e-15
4.6682677e-05
1.2178781e-15
4.6682677e-05
1.2514581e-15
4.6682677e-05
1.2391155e-15
4.6682677e-05
1.265389e-15
4.6682677e-05
1.2421486e-15
4.6682677e-05
1.3419868e-15
4.6682677e-05
1.3255444e-15
4.6682677e-05
1.4618106e-15
4.6682677e-05
1.4014481e-15
4.6682677e-05
1.5585217e-15
4.6682677e-05
1.4673873e-15
4.6682677e-05
1.6658043e-15
4.6682677e-05
1.5157603e-15
4.6682677e-05
1.6870513e-15
4.6682677e-05
1.4292247e-15
4.6682677e-05
1.5161584e-15
4.6682677e-05
1.1222042e-15
4.6682677e-05
1.0283273e-15
4.6682677e-05
6.3702499e-16
4.6682677e-05
8.0193374e-16
4.6682677e-05
6.82556e-16
4.6682677e-05
9.2389325e-16
4.6682677e-05
5.1943714e-16
4.6682677e-05
1.9331303e-16
4.6682677e-05
-5.8498361e-16
4.6682677e-05
-9.404712e-16
4.6682677e-05
-1.3043751e-15
4.6682677e-05
-1.1017471e-15
4.6682677e-05
-8.4439827e-16
4.6682677e-05
-2.9513836e-16
4.6682677e-05
4.1887964e-17
4.6682677e-05
3.6973101e-16
4.6682677e-05
4.4483568e-16
4.6682677e-05
9.1528319e-16
4.6682677e-05
1.0535944e-15
4.6682677e-05
1.0957066e-15
4.6682677e-05
5.1602069e-16
4.6682677e-05
8.1636983e-17
4.6682677e-05
-3.6010775e-16
4.6682677e-05
-4.4907746e-16
4.6682677e-05
-7.4552523e-16
4.6682677e-05
-1.0809409e-15
4.6682677e-05
-1.3851831e-15
4.6682677e-05
-1.1830335e-15
4.6682677e-05
-8.9626644e-16
4.6682677e-05
-2.7263034e-16
4.6682677e-05
7.5749316e-17
4.6682677e-05
3.8392271e-16
4.6682677e-05
4.8563541e-16
4.6682677e-05
3.8917119e-16
4.6682677e-05
2.0803133e-17
4.6682677e-05
-4.4058834e-16
4.6682677e-05
-7.2948476e-16
4.6682677e-05
-6.9565457e-16
4.6682677e-05
-7.9893567e-16
4.6682677e-05
-1.0091965e-15
4.6682677e-05
-1.3228207e-15
4.6682677e-05
-1.2474709e-15
4.6682677e-05
-8.6045502e-16
4.6682677e-05
-1.6083641e-16
4.6682677e-05
3.4584373e-16
4.6682677e-05
2.94682e-16
4.6682677e-05
8.6871924e-20
4.6682677e-05
-6.547333e-16
4.6682677e-05
-1.04154e-15
4.6682677e-05
-1.1665435e-15
4.6682677e-05
-7.6503987e-16
4.6682677e-05
-1.7808837e-16
4.6682677e-05
4.4756083e-16
4.6682677e-05
6.0044288e-16
4.6682677e-05
3.9338589e-16
4.6682677e-05
-1.462007e-16
4.6682677e-05
-4.9243348e-16
4.6682677e-05
-7.8783747e-16
4.6682677e-05
-7.918893e-16
4.6682677e-05
-8.221726e-16
4.6682677e-05
-6.3410082e-16
4.6682677e-05
-5.3551157e-16
4.6682677e-05
9.8433886e-18
4.6682677e-05
3.2572112e-16
4.6682677e-05
5.1613737e-16
4.6682677e-05
2.5207438e-16
4.6682677e-05
-1.1879204e-16
4.6682677e-05
-7.5274607e-16
4.6682677e-05
-9.463292e-16
4.6682677e-05
-9.3059021e-16
4.6682677e-05
-3.5967941e-16
4.6682677e-05
-9.2050907e-17
4.6682677e-05
3.2788422e-16
4.6682677e-05
-9.4484389e-18
4.6682677e-05
-1.3963482e-16
4.6682677e-05
-6.2462116e-16
4.6682677e-05
-6.5023027e-16
4.6682677e-05
-7.8041189e-16
4.6682677e-05
-2.2599292e-16
4.6682677e-05
2.3730612e-16
4.6682677e-05
8.5485603e-16
4.6682677e-05
9.6857772e-16
4.6682677e-05
7.1155882e-16
4.6682677e-05
-4.3205942e-17
4.6682677e-05
-4.6961032e-16
4.6682677e-05
-5.8630107e-16
4.6682677e-05
-1.6718713e-16
4.6682677e-05
4.4222221e-16
4.6682677e-05
7.7791735e-16
4.6682677e-05
8.7964374e-16
4.6682677e-05
7.0875278e-16
4.6682677e-05
5.9991698e-16
4.6682677e-05
7.109761e-16
4.6682677e-05
9.4164608e-16
4.6682677e-05
1.0011353e-15
4.6682677e-05
9.4673491e-16
4.6682677e-05
1.0199358e-15
4.6682677e-05
1.4062158e-15
4.6682677e-05
1.4084258e-15
4.6682677e-05
3.4907862e-16
-4.1762932e-16
0.00019469214
0.00040416928
0.00014360962
0.00012695408
0.00011230147
6.163846e-05
9.6619294e-05
3.0581114e-05
8.7762221e-05
1.632342e-05
8.2755406e-05
9.4095933e-06
7.9871701e-05
5.2600352e-06
7.8206033e-05
3.0813126e-06
7.7256668e-05
1.7212117e-06
7.6718195e-05
9.8475056e-07
7.6420462e-05
5.3570421e-07
7.6258218e-05
2.9317473e-07
7.6172993e-05
1.5149784e-07
7.61296e-05
7.7058861e-08
7.6108851e-05
3.5996167e-08
7.6099695e-05
1.5636799e-08
7.6096324e-05
5.3623202e-09
7.6095587e-05
8.8360985e-10
7.6095937e-05
-9.4644805e-10
7.6096611e-05
-1.4107194e-09
7.609729e-05
-1.3528675e-09
7.6097854e-05
-1.092897e-09
7.609828e-05
-8.1640971e-10
7.6098584e-05
-5.7542438e-10
7.6098791e-05
-3.9124398e-10
7.6098929e-05
-2.5758708e-10
7.6099018e-05
-1.6565381e-10
7.6099074e-05
-1.0412432e-10
7.6099108e-05
-6.4227718e-11
7.609913e-05
-3.8857886e-11
7.6099142e-05
-2.3092253e-11
7.609915e-05
-1.345954e-11
7.6099154e-05
-7.6927368e-12
7.6099156e-05
-4.3001969e-12
7.6099157e-05
-2.3450926e-12
7.6099158e-05
-1.2398024e-12
7.6099158e-05
-6.2950588e-13
7.6099159e-05
-3.0161896e-13
7.6099159e-05
-1.3200359e-13
7.6099159e-05
-4.8262056e-14
7.6099159e-05
-9.8526015e-15
7.6099159e-05
5.4568272e-15
7.6099159e-05
1.0082963e-14
7.6099159e-05
1.0039755e-14
7.6099159e-05
9.1800595e-15
7.6099159e-05
7.4232758e-15
7.6099159e-05
5.4202052e-15
7.6099159e-05
2.7910249e-15
7.6099159e-05
1.2318388e-15
7.6099159e-05
6.7678848e-17
7.6099159e-05
-7.7296483e-17
7.6099159e-05
2.4482366e-16
7.6099159e-05
8.7793608e-16
7.6099159e-05
1.3326011e-15
7.6099159e-05
1.5236974e-15
7.6099159e-05
1.3292817e-15
7.6099159e-05
9.8206933e-16
7.6099159e-05
7.312986e-16
7.6099159e-05
5.4815699e-16
7.6099159e-05
4.326853e-16
7.6099159e-05
3.9358478e-16
7.6099159e-05
6.4991255e-16
7.6099159e-05
7.7903062e-16
7.6099159e-05
1.0536774e-15
7.6099159e-05
1.0307636e-15
7.6099159e-05
1.2922271e-15
7.6099159e-05
1.2246721e-15
7.6099159e-05
1.118172e-15
7.6099159e-05
6.4027054e-16
7.6099159e-05
3.4042866e-16
7.6099159e-05
-3.6976592e-16
7.6099159e-05
-1.6782056e-16
7.6099159e-05
-4.4793794e-16
7.6099159e-05
-1.9628907e-16
7.6099159e-05
-7.09797e-16
7.6099159e-05
-6.5015639e-16
7.6099159e-05
-1.0918687e-15
7.6099159e-05
-5.7351511e-16
7.6099159e-05
-3.9605764e-16
7.6099159e-05
4.9139645e-16
7.6099159e-05
4.8934354e-16
7.6099159e-05
8.4415934e-16
7.6099159e-05
4.9781618e-16
7.6099159e-05
7.9428021e-16
7.6099159e-05
6.2604193e-16
7.6099159e-05
9.8517874e-16
7.6099159e-05
8.2611052e-16
7.6099159e-05
9.9822875e-16
7.6099159e-05
7.7167227e-16
7.6099159e-05
8.1990338e-16
7.6099159e-05
6.0907412e-16
7.6099159e-05
6.4190703e-16
7.6099159e-05
4.8505145e-16
7.6099159e-05
5.0281245e-16
7.6099159e-05
3.4540472e-16
7.6099159e-05
3.6800252e-16
7.6099159e-05
2.3283516e-16
7.6099159e-05
2.6953964e-16
7.6099159e-05
1.823142e-16
7.6099159e-05
3.7638229e-16
7.6099159e-05
4.5201841e-16
7.6099159e-05
7.1770744e-16
7.6099159e-05
4.748934e-16
7.6099159e-05
4.2794754e-16
7.6099159e-05
1.2253947e-16
7.6099159e-05
2.9689639e-16
7.6099159e-05
4.4502926e-16
7.6099159e-05
4.4300205e-16
7.6099159e-05
2.3896751e-16
7.6099159e-05
8.0180999e-17
7.6099159e-05
-3.6109185e-18
7.6099159e-05
1.2536624e-16
7.6099159e-05
2.7607603e-16
7.6099159e-05
6.4041131e-16
7.6099159e-05
7.8970865e-16
7.6099159e-05
8.9807238e-16
7.6099159e-05
7.7190098e-16
7.6099159e-05
8.1102781e-16
7.6099159e-05
6.7623546e-16
7.6099159e-05
8.290395e-16
7.6099159e-05
7.7024202e-16
7.6099159e-05
9.2506476e-16
7.6099159e-05
8.1809276e-16
7.6099159e-05
8.5495907e-16
7.6099159e-05
7.0306017e-16
7.6099159e-05
7.3281838e-16
7.6099159e-05
6.5114961e-16
7.6099159e-05
7.4073021e-16
7.6099159e-05
7.0852151e-16
7.6099159e-05
8.1148353e-16
7.6099159e-05
7.796514e-16
7.6099159e-05
8.6961774e-16
7.6099159e-05
8.3041892e-16
7.6099159e-05
9.0358046e-16
7.6099159e-05
8.6329326e-16
7.6099159e-05
9.2380526e-16
7.6099159e-05
8.8754726e-16
7.6099159e-05
9.315625e-16
7.6099159e-05
9.0046956e-16
7.6099159e-05
9.3185443e-16
7.6099159e-05
9.166033e-16
7.6099159e-05
9.4498697e-16
7.6099159e-05
9.4267023e-16
7.6099159e-05
9.534592e-16
7.6099159e-05
9.5194861e-16
7.6099159e-05
9.619497e-16
7.6099159e-05
9.8752312e-16
7.6099159e-05
9.7340856e-16
7.6099159e-05
9.4059976e-16
7.6099159e-05
8.5922894e-16
7.6099159e-05
8.9470343e-16
7.6099159e-05
9.5803796e-16
7.6099159e-05
1.0188594e-15
7.6099159e-05
7.9729643e-16
7.6099159e-05
3.0126476e-16
7.6099159e-05
-2.761677e-16
7.6099159e-05
-7.0878036e-16
7.6099159e-05
-7.2966494e-16
7.6099159e-05
-5.6530382e-16
7.6099159e-05
-4.6491763e-16
7.6099159e-05
-6.4614678e-16
7.6099159e-05
-8.0544665e-16
7.6099159e-05
-8.7311945e-16
7.6099159e-05
-5.979398e-16
7.6099159e-05
-7.8610009e-17
7.6099159e-05
3.6273598e-16
7.6099159e-05
6.4314998e-16
7.6099159e-05
6.1070961e-16
7.6099159e-05
6.2097344e-16
7.6099159e-05
6.6305828e-16
7.6099159e-05
8.1603224e-16
7.6099159e-05
8.8974794e-16
7.6099159e-05
9.7060582e-16
7.6099159e-05
9.5229387e-16
7.6099159e-05
9.7201196e-16
7.6099159e-05
9.3779181e-16
7.6099159e-05
9.7267189e-16
7.6099159e-05
9.5873015e-16
7.6099159e-05
1.0175968e-15
7.6099159e-05
1.0165409e-15
7.6099159e-05
1.0685677e-15
7.6099159e-05
1.0590894e-15
7.6099159e-05
1.1176947e-15
7.6099159e-05
1.117228e-15
7.6099159e-05
1.1828977e-15
7.6099159e-05
1.1422672e-15
7.6099159e-05
1.2102584e-15
7.6099159e-05
1.1587762e-15
7.6099159e-05
1.2967224e-15
7.6099159e-05
1.2376499e-15
7.6099159e-05
1.418453e-15
7.6099159e-05
1.2984481e-15
7.6099159e-05
1.512345e-15
7.6099159e-05
1.3486306e-15
7.6099159e-05
1.6287034e-15
7.6099159e-05
1.4069538e-15
7.6099159e-05
1.6889165e-15
7.6099159e-05
1.3479738e-15
7.6099159e-05
1.5037796e-15
7.6099159e-05
9.9157839e-16
7.6099159e-05
9.1762215e-16
7.6099159e-05
4.1813657e-16
7.6099159e-05
6.2644266e-16
7.6099159e-05
4.1232244e-16
7.6099159e-05
7.0293432e-16
7.6099159e-05
2.3600424e-16
7.6099159e-05
4.941977e-18
7.6099159e-05
-7.548461e-16
7.6099159e-05
-9.7757716e-16
7.6099159e-05
-1.3057104e-15
7.6099159e-05
-9.8569014e-16
7.6099159e-05
-7.7395881e-16
7.6099159e-05
-1.766852e-16
7.6099159e-05
5.1178551e-17
7.6099159e-05
3.9140473e-16
7.6099159e-05
3.9102109e-16
7.6099159e-05
8.3012645e-16
7.6099159e-05
9.0823214e-16
7.6099159e-05
9.5808498e-16
7.6099159e-05
3.9429296e-16
7.6099159e-05
5.5996935e-17
7.6099159e-05
-3.6408553e-16
7.6099159e-05
-3.7175883e-16
7.6099159e-05
-6.8104063e-16
7.6099159e-05
-9.5967926e-16
7.6099159e-05
-1.2717759e-15
7.6099159e-05
-1.0680231e-15
7.6099159e-05
-8.3188421e-16
7.6099159e-05
-2.7800265e-16
7.6099159e-05
-1.9267165e-17
7.6099159e-05
2.3664488e-16
7.6099159e-05
2.3675735e-16
7.6099159e-05
1.6260242e-16
7.6099159e-05
-2.3435628e-16
7.6099159e-05
-5.7864659e-16
7.6099159e-05
-8.1364087e-16
7.6099159e-05
-7.1880592e-16
7.6099159e-05
-7.7806903e-16
7.6099159e-05
-9.3924598e-16
7.6099159e-05
-1.1883903e-15
7.6099159e-05
-1.1149388e-15
7.6099159e-05
-7.1949266e-16
7.6099159e-05
-1.40173e-16
7.6099159e-05
2.8254998e-16
7.6099159e-05
1.5943439e-16
7.6099159e-05
-1.7930204e-16
7.6099159e-05
-7.9045834e-16
7.6099159e-05
-1.1004138e-15
7.6099159e-05
-1.1722734e-15
7.6099159e-05
-6.8256812e-16
7.6099159e-05
-1.2302008e-16
7.6099159e-05
4.8530273e-16
7.6099159e-05
5.4969244e-16
7.6099159e-05
3.0814126e-16
7.6099159e-05
-2.5546674e-16
7.6099159e-05
-5.5135834e-16
7.6099159e-05
-8.4639414e-16
7.6099159e-05
-7.6203515e-16
7.6099159e-05
-7.6684022e-16
7.6099159e-05
-5.4421511e-16
7.6099159e-05
-4.4055396e-16
7.6099159e-05
4.8134879e-17
7.6099159e-05
2.7344519e-16
7.6099159e-05
4.1417524e-16
7.6099159e-05
6.2704716e-17
7.6099159e-05
-2.3528821e-16
7.6099159e-05
-8.7054793e-16
7.6099159e-05
-9.2857348e-16
7.6099159e-05
-9.2991249e-16
7.6099159e-05
-3.3278576e-16
7.6099159e-05
-1.9245141e-16
7.6099159e-05
1.8066593e-16
7.6099159e-05
-2.9299442e-16
7.6099159e-05
-3.7169902e-16
7.6099159e-05
-8.4656721e-16
7.6099159e-05
-7.2062486e-16
7.6099159e-05
-8.253257e-16
7.6099159e-05
-1.4540479e-16
7.6099159e-05
2.3058384e-16
7.6099159e-05
8.7360554e-16
7.6099159e-05
8.7775788e-16
7.6099159e-05
6.0705217e-16
7.6099159e-05
-9.1923427e-17
7.6099159e-05
-4.6300281e-16
7.6099159e-05
-5.0414407e-16
7.6099159e-05
-1.8724295e-17
7.6099159e-05
5.3750116e-16
7.6099159e-05
8.632728e-16
7.6099159e-05
9.0293016e-16
7.6099159e-05
6.9422167e-16
7.6099159e-05
5.6804845e-16
7.6099159e-05
6.3588496e-16
7.6099159e-05
8.4203969e-16
7.6099159e-05
8.8408535e-16
7.6099159e-05
8.5720602e-16
7.6099159e-05
9.3310093e-16
7.6099159e-05
1.2639235e-15
7.6099159e-05
1.1975751e-15
7.6099159e-05
2.6116646e-16
-4.1098182e-16
0.00023312986
0.00043770622
0.00018548527
0.00017459868
0.00015018421
9.6939523e-05
0.0001310242
4.9741131e-05
0.00011965162
2.7696005e-05
0.0001131446
1.5916622e-05
0.00010931814
9.0865039e-06
0.00010710183
5.2976312e-06
0.0001058215
3.0015561e-06
0.00010509347
1.7127845e-06
0.00010468612
9.4305345e-07
0.00010446306
5.1623482e-07
0.00010434425
2.7031249e-07
0.00010428311
1.3819364e-07
0.00010425319
6.5914604e-08
0.00010423959
2.9235064e-08
0.0001042342
1.0752988e-08
0.00010423268
2.4049482e-09
0.00010423281
-1.0809597e-09
0.00010423352
-2.1167426e-09
0.00010423431
-2.1447082e-09
0.000104235
-1.7798579e-09
0.00010423553
-1.3483603e-09
0.00010423592
-9.6053641e-10
0.00010423618
-6.5771525e-10
0.00010423636
-4.3577467e-10
0.00010423648
-2.816098e-10
0.00010423655
-1.7784704e-10
0.0001042366
-1.1014504e-10
0.00010423662
-6.6915155e-11
0.00010423664
-3.9926997e-11
0.00010423665
-2.3376341e-11
0.00010423666
-1.3423691e-11
0.00010423666
-7.5436449e-12
0.00010423666
-4.138672e-12
0.00010423666
-2.204976e-12
0.00010423666
-1.1324363e-12
0.00010423666
-5.5178657e-13
0.00010423666
-2.483556e-13
0.00010423666
-9.6403023e-14
0.00010423666
-2.5717249e-14
0.00010423666
3.9633289e-15
0.00010423666
1.3812173e-14
0.00010423666
1.568843e-14
0.00010423666
1.4472351e-14
0.00010423666
1.1228017e-14
0.00010423666
7.2411534e-15
0.00010423666
3.4016583e-15
0.00010423666
7.2137731e-16
0.00010423666
-4.8663901e-16
0.00010423666
-9.7801197e-16
0.00010423666
-5.2557219e-16
0.00010423666
-1.278331e-16
0.00010423666
4.3267531e-16
0.00010423666
4.3103387e-16
0.00010423666
3.8631568e-16
0.00010423666
5.5797132e-19
0.00010423666
3.6978908e-17
0.00010423666
-5.1089559e-16
0.00010423666
-2.6684381e-16
0.00010423666
-6.8858048e-16
0.00010423666
-2.3768005e-16
0.00010423666
-2.9223039e-16
0.00010423666
2.3215924e-16
0.00010423666
1.2947611e-16
0.00010423666
4.672709e-16
0.00010423666
1.8882931e-16
0.00010423666
1.1590679e-17
0.00010423666
-5.7040517e-16
0.00010423666
-4.4497283e-16
0.00010423666
-1.0517313e-15
0.00010423666
-7.5732923e-17
0.00010423666
-1.9396015e-16
0.00010423666
5.5752367e-16
0.00010423666
1.5570437e-17
0.00010423666
4.2662729e-16
0.00010423666
-9.3576113e-17
0.00010423666
7.111405e-16
0.00010423666
6.3021781e-16
0.00010423666
1.4256032e-15
0.00010423666
8.1895577e-16
0.00010423666
9.6963759e-16
0.00010423666
2.2275271e-17
0.00010423666
2.7321289e-16
0.00010423666
-2.805024e-16
0.00010423666
1.8796289e-16
0.00010423666
-1.80279e-16
0.00010423666
1.7748062e-16
0.00010423666
-2.0960524e-16
0.00010423666
1.9999684e-18
0.00010423666
-3.6792106e-16
0.00010423666
-2.0560595e-16
0.00010423666
-5.1731303e-16
0.00010423666
-3.9386618e-16
0.00010423666
-6.8655804e-16
0.00010423666
-5.6354603e-16
0.00010423666
-8.2002978e-16
0.00010423666
-6.9928776e-16
0.00010423666
-9.0528253e-16
0.00010423666
-6.479186e-16
0.00010423666
-7.1642385e-16
0.00010423666
-4.3380368e-16
0.00010423666
-7.323074e-16
0.00010423666
-5.4443906e-16
0.00010423666
-6.2250639e-16
0.00010423666
6.3915559e-17
0.00010423666
6.9470409e-16
0.00010423666
1.1411913e-15
0.00010423666
1.0528076e-15
0.00010423666
6.5286191e-16
0.00010423666
1.1179543e-16
0.00010423666
-1.8670149e-16
0.00010423666
-4.0785558e-16
0.00010423666
-2.511396e-16
0.00010423666
-3.2157483e-16
0.00010423666
-1.9643791e-16
0.00010423666
-3.6532804e-16
0.00010423666
-2.3596721e-16
0.00010423666
-3.7648421e-16
0.00010423666
-1.8010296e-16
0.00010423666
-2.837764e-16
0.00010423666
-9.8445808e-17
0.00010423666
-2.1077192e-16
0.00010423666
-1.2261842e-16
0.00010423666
-2.7995853e-16
0.00010423666
-2.3069894e-16
0.00010423666
-3.4371428e-16
0.00010423666
-2.4612182e-16
0.00010423666
-3.036428e-16
0.00010423666
-1.7584859e-16
0.00010423666
-2.2073379e-16