/*--------------------------------*- C++ -*----------------------------------*\
| =========                 |                                                 |
| \\      /  F ield         | OpenFOAM: The Open Source CFD Toolbox           |
|  \\    /   O peration     | Version:  2206                                  |
|   \\  /    A nd           | Website:  www.openfoam.com                      |
|    \\/     M anipulation  |                                                 |
\*---------------------------------------------------------------------------*/
FoamFile
{
    version     2.0;
    format      ascii;
    arch        "LSB;label=32;scalar=64";
    class       volVectorField;
    location    "6";
    object      U;
}
// * * * * * * * * * * * * * * * * * * * * * * * * * * * * * * * * * * * * * //

dimensions      [0 1 -1 0 0 0 0];

internalField   nonuniform List<vector> 
15000
(
(0.15962853 0.053997677 0)
(0.11557193 0.0064916385 0)
(0.06425136 0.0014144176 0)
(0.055918598 0.0007495981 0)
(0.047595816 0.00028826646 0)
(0.044708799 0.00019884156 0)
(0.042412494 9.0520872e-05 0)
(0.041406638 6.0127482e-05 0)
(0.040707476 2.8979685e-05 0)
(0.04037699 1.8020325e-05 0)
(0.040167798 8.6626813e-06 0)
(0.04006866 4.9960593e-06 0)
(0.040011054 2.2677378e-06 0)
(0.039985308 1.1739144e-06 0)
(0.039971973 4.4682459e-07 0)
(0.039967049 1.7406153e-07 0)
(0.03996518 1.4251551e-08 0)
(0.039965127 -3.0084409e-08 0)
(0.039965544 -4.860917e-08 0)
(0.039966152 -4.3213838e-08 0)
(0.03996668 -3.5733999e-08 0)
(0.039967111 -2.6036458e-08 0)
(0.039967422 -1.8544097e-08 0)
(0.039967642 -1.2461019e-08 0)
(0.03996779 -8.2462249e-09 0)
(0.039967887 -5.2647701e-09 0)
(0.039967949 -3.3160796e-09 0)
(0.039967988 -2.0348872e-09 0)
(0.039968012 -1.232105e-09 0)
(0.039968026 -7.2914064e-10 0)
(0.039968035 -4.2426908e-10 0)
(0.03996804 -2.4081816e-10 0)
(0.039968042 -1.3396276e-10 0)
(0.039968044 -7.2544442e-11 0)
(0.039968045 -3.8202095e-11 0)
(0.039968045 -1.9166947e-11 0)
(0.039968045 -8.9196873e-12 0)
(0.039968046 -3.6757734e-12 0)
(0.039968046 -1.2067459e-12 0)
(0.039968046 -8.8133996e-14 0)
(0.039968046 4.1215192e-13 0)
(0.039968046 5.1969432e-13 0)
(0.039968046 4.7804111e-13 0)
(0.039968046 2.8048894e-13 0)
(0.039968046 2.5706948e-13 0)
(0.039968046 2.5280636e-13 0)
(0.039968046 3.1765701e-13 0)
(0.039968046 2.10044e-13 0)
(0.039968046 1.9895366e-13 0)
(0.039968046 1.2445318e-13 0)
(0.039968046 1.0392719e-13 0)
(0.039968046 1.5847267e-13 0)
(0.039968046 2.2198725e-13 0)
(0.039968046 2.4909524e-13 0)
(0.039968046 2.7885489e-13 0)
(0.039968046 2.3112329e-13 0)
(0.039968046 1.9757821e-13 0)
(0.039968046 1.5399001e-13 0)
(0.039968046 1.5766954e-13 0)
(0.039968046 1.3828964e-13 0)
(0.039968046 1.6718769e-13 0)
(0.039968046 1.8484057e-13 0)
(0.039968046 2.0164276e-13 0)
(0.039968046 2.0905934e-13 0)
(0.039968046 1.9825755e-13 0)
(0.039968046 2.2372761e-13 0)
(0.039968046 2.3527236e-13 0)
(0.039968046 2.4551653e-13 0)
(0.039968046 2.2218557e-13 0)
(0.039968046 1.6584234e-13 0)
(0.039968046 4.693645e-15 0)
(0.039968046 -1.5742405e-14 0)
(0.039968046 -1.0630581e-13 0)
(0.039968046 -1.1995419e-13 0)
(0.039968046 -2.0173518e-13 0)
(0.039968046 -2.1606861e-13 0)
(0.039968046 -2.7913137e-13 0)
(0.039968046 -2.3483604e-13 0)
(0.039968046 -1.9923756e-13 0)
(0.039968046 -6.1973084e-14 0)
(0.039968046 -9.4698782e-15 0)
(0.039968046 9.1439992e-14 0)
(0.039968046 1.1656367e-13 0)
(0.039968046 1.8311858e-13 0)
(0.039968046 1.9722822e-13 0)
(0.039968046 2.385602e-13 0)
(0.039968046 2.298278e-13 0)
(0.039968046 2.3541441e-13 0)
(0.039968046 2.1602723e-13 0)
(0.039968046 2.0923935e-13 0)
(0.039968046 1.9484304e-13 0)
(0.039968046 1.8885437e-13 0)
(0.039968046 1.8217286e-13 0)
(0.039968046 1.7553311e-13 0)
(0.039968046 1.6670315e-13 0)
(0.039968046 1.6018099e-13 0)
(0.039968046 1.5298156e-13 0)
(0.039968046 1.4853823e-13 0)
(0.039968046 1.4670586e-13 0)
(0.039968046 1.6549626e-13 0)
(0.039968046 1.8805822e-13 0)
(0.039968046 2.257268e-13 0)
(0.039968046 2.0372359e-13 0)
(0.039968046 1.9345658e-13 0)
(0.039968046 1.3214792e-13 0)
(0.039968046 9.44674e-14 0)
(0.039968046 2.7689502e-14 0)
(0.039968046 -5.3222077e-14 0)
(0.039968046 -1.0102984e-13 0)
(0.039968046 -9.8535828e-14 0)
(0.039968046 -3.8513856e-14 0)
(0.039968046 5.0618136e-14 0)
(0.039968046 1.2501913e-13 0)
(0.039968046 2.0269862e-13 0)
(0.039968046 2.4479315e-13 0)
(0.039968046 2.5355552e-13 0)
(0.039968046 2.369215e-13 0)
(0.039968046 2.3318155e-13 0)
(0.039968046 2.1449089e-13 0)
(0.039968046 2.3199757e-13 0)
(0.039968046 2.2602136e-13 0)
(0.039968046 2.4268358e-13 0)
(0.039968046 2.2585965e-13 0)
(0.039968046 2.2652667e-13 0)
(0.039968046 2.0788368e-13 0)
(0.039968046 2.1294479e-13 0)
(0.039968046 2.0656394e-13 0)
(0.039968046 2.1934004e-13 0)
(0.039968046 2.1754058e-13 0)
(0.039968046 2.2949297e-13 0)
(0.039968046 2.2605835e-13 0)
(0.039968046 2.3538952e-13 0)
(0.039968046 2.3077016e-13 0)
(0.039968046 2.3806963e-13 0)
(0.039968046 2.3345075e-13 0)
(0.039968046 2.3977014e-13 0)
(0.039968046 2.3658119e-13 0)
(0.039968046 2.4107523e-13 0)
(0.039968046 2.3908529e-13 0)
(0.039968046 2.4188646e-13 0)
(0.039968046 2.4176403e-13 0)
(0.039968046 2.4418235e-13 0)
(0.039968046 2.4580769e-13 0)
(0.039968046 2.4562966e-13 0)
(0.039968046 2.4613303e-13 0)
(0.039968046 2.4460282e-13 0)
(0.039968046 2.4889704e-13 0)
(0.039968046 2.4635769e-13 0)
(0.039968046 2.4270892e-13 0)
(0.039968046 2.2664628e-13 0)
(0.039968046 2.2635292e-13 0)
(0.039968046 2.3460374e-13 0)
(0.039968046 2.6030453e-13 0)
(0.039968046 2.5228782e-13 0)
(0.039968046 1.9884337e-13 0)
(0.039968046 1.1379406e-13 0)
(0.039968046 -1.2117566e-14 0)
(0.039968046 -7.5147804e-14 0)
(0.039968046 -1.1559407e-13 0)
(0.039968046 -1.3721576e-13 0)
(0.039968046 -1.8466901e-13 0)
(0.039968046 -2.1968092e-13 0)
(0.039968046 -2.4777341e-13 0)
(0.039968046 -2.1994018e-13 0)
(0.039968046 -1.4587219e-13 0)
(0.039968046 -4.6954737e-14 0)
(0.039968046 5.066242e-14 0)
(0.039968046 1.0830353e-13 0)
(0.039968046 1.5995426e-13 0)
(0.039968046 1.966437e-13 0)
(0.039968046 2.3047042e-13 0)
(0.039968046 2.4264787e-13 0)
(0.039968046 2.4801735e-13 0)
(0.039968046 2.4193607e-13 0)
(0.039968046 2.3902164e-13 0)
(0.039968046 2.343737e-13 0)
(0.039968046 2.3592863e-13 0)
(0.039968046 2.3603413e-13 0)
(0.039968046 2.4054403e-13 0)
(0.039968046 2.4399772e-13 0)
(0.039968046 2.4706841e-13 0)
(0.039968046 2.5096974e-13 0)
(0.039968046 2.539111e-13 0)
(0.039968046 2.5973176e-13 0)
(0.039968046 2.650978e-13 0)
(0.039968046 2.6621416e-13 0)
(0.039968046 2.6999189e-13 0)
(0.039968046 2.680296e-13 0)
(0.039968046 2.8122585e-13 0)
(0.039968046 2.7995054e-13 0)
(0.039968046 3.0198739e-13 0)
(0.039968046 2.9517355e-13 0)
(0.039968046 3.226939e-13 0)
(0.039968046 3.0955892e-13 0)
(0.039968046 3.4273099e-13 0)
(0.039968046 3.1790081e-13 0)
(0.039968046 3.4609289e-13 0)
(0.039968046 3.0441728e-13 0)
(0.039968046 3.1893411e-13 0)
(0.039968046 2.5897797e-13 0)
(0.039968046 2.4636767e-13 0)
(0.039968046 1.806397e-13 0)
(0.039968046 2.0004911e-13 0)
(0.039968046 1.7868319e-13 0)
(0.039968046 2.2442474e-13 0)
(0.039968046 1.772085e-13 0)
(0.039968046 1.3561145e-13 0)
(0.039968046 1.1179833e-14 0)
(0.039968046 -7.562095e-14 0)
(0.039968046 -1.9691174e-13 0)
(0.039968046 -2.3123519e-13 0)
(0.039968046 -2.4798134e-13 0)
(0.039968046 -1.7514055e-13 0)
(0.039968046 -9.4165252e-14 0)
(0.039968046 1.635352e-14 0)
(0.039968046 8.4957108e-14 0)
(0.039968046 1.9764977e-13 0)
(0.039968046 2.5248423e-13 0)
(0.039968046 2.7337791e-13 0)
(0.039968046 1.9314441e-13 0)
(0.039968046 1.0950392e-13 0)
(0.039968046 -9.4094544e-15 0)
(0.039968046 -7.4576913e-14 0)
(0.039968046 -1.6216972e-13 0)
(0.039968046 -2.4267012e-13 0)
(0.039968046 -3.0618432e-13 0)
(0.039968046 -2.9383236e-13 0)
(0.039968046 -2.5544615e-13 0)
(0.039968046 -1.4475624e-13 0)
(0.039968046 -4.0064382e-14 0)
(0.039968046 6.7180829e-14 0)
(0.039968046 1.3871361e-13 0)
(0.039968046 1.7751092e-13 0)
(0.039968046 1.3029105e-13 0)
(0.039968046 5.0852776e-14 0)
(0.039968046 -3.8761285e-14 0)
(0.039968046 -9.8455599e-14 0)
(0.039968046 -1.6391226e-13 0)
(0.039968046 -2.3094969e-13 0)
(0.039968046 -2.9572097e-13 0)
(0.039968046 -3.0906126e-13 0)
(0.039968046 -2.5600237e-13 0)
(0.039968046 -1.4671844e-13 0)
(0.039968046 -1.0993027e-14 0)
(0.039968046 5.9271401e-14 0)
(0.039968046 7.8268001e-14 0)
(0.039968046 1.3696441e-14 0)
(0.039968046 -6.3784095e-14 0)
(0.039968046 -1.5240824e-13 0)
(0.039968046 -1.6844537e-13 0)
(0.039968046 -1.509194e-13 0)
(0.039968046 -4.237586e-14 0)
(0.039968046 2.9193444e-14 0)
(0.039968046 7.6245617e-14 0)
(0.039968046 6.5329215e-14 0)
(0.039968046 3.6278728e-14 0)
(0.039968046 -3.7869111e-14 0)
(0.039968046 -9.153225e-14 0)
(0.039968046 -1.6768868e-13 0)
(0.039968046 -1.940573e-13 0)
(0.039968046 -2.0717996e-13 0)
(0.039968046 -1.2084197e-13 0)
(0.039968046 -1.3698023e-14 0)
(0.039968046 8.8696528e-14 0)
(0.039968046 1.1714882e-13 0)
(0.039968046 1.0701244e-13 0)
(0.039968046 -1.1755816e-14 0)
(0.039968046 -9.4158301e-14 0)
(0.039968046 -1.8343458e-13 0)
(0.039968046 -1.6369311e-13 0)
(0.039968046 -1.2817984e-13 0)
(0.039968046 -1.0961968e-14 0)
(0.039968046 1.5717222e-14 0)
(0.039968046 8.1306571e-14 0)
(0.039968046 4.7744373e-14 0)
(0.039968046 2.0671783e-14 0)
(0.039968046 -6.8533299e-14 0)
(0.039968046 -6.3966321e-14 0)
(0.039968046 -6.2697178e-14 0)
(0.039968046 4.6093833e-14 0)
(0.039968046 1.1210792e-13 0)
(0.039968046 1.4661809e-13 0)
(0.039968046 1.080253e-13 0)
(0.039968046 2.9927066e-14 0)
(0.039968046 -2.8664491e-14 0)
(0.039968046 -4.4422376e-14 0)
(0.039968046 -1.8173065e-14 0)
(0.039968046 2.0442772e-14 0)
(0.039968046 7.0258926e-14 0)
(0.039968046 9.5230821e-14 0)
(0.039968046 1.412838e-13 0)
(0.039968046 1.8189548e-13 0)
(0.039968046 2.360261e-13 0)
(0.039968046 2.3992427e-13 0)
(0.039968046 2.303949e-13 0)
(0.039968046 2.1761417e-13 0)
(0.039968046 2.6987581e-13 0)
(0.039968046 2.9258753e-13 0)
(0.039968046 1.963202e-13 0)
(0.039968046 1.9020498e-14 0)
(0.36732383 0.14062829 0)
(0.29754389 0.025079378 0)
(0.1860793 0.0083694582 0)
(0.16132807 0.0041218729 0)
(0.13901859 0.0019375789 0)
(0.13040448 0.0011770225 0)
(0.12396461 0.00061112755 0)
(0.12095998 0.00037191888 0)
(0.1189454 0.00019726644 0)
(0.11794826 0.00011564224 0)
(0.11733081 6.0261107e-05 0)
(0.11702581 3.341646e-05 0)
(0.11685066 1.6512178e-05 0)
(0.11676842 8.392982e-06 0)
(0.1167257 3.6634067e-06 0)
(0.11670834 1.5209015e-06 0)
(0.1167012 3.994762e-07 0)
(0.11669986 -2.8050718e-08 0)
(0.1167004 -1.9900828e-07 0)
(0.11670175 -2.1585719e-07 0)
(0.11670304 -1.9028266e-07 0)
(0.11670415 -1.4598823e-07 0)
(0.11670497 -1.0636455e-07 0)
(0.11670557 -7.3304681e-08 0)
(0.11670597 -4.9177767e-08 0)
(0.11670624 -3.1932193e-08 0)
(0.11670642 -2.033566e-08 0)
(0.11670653 -1.2647662e-08 0)
(0.11670659 -7.735666e-09 0)
(0.11670664 -4.6359455e-09 0)
(0.11670666 -2.7309478e-09 0)
(0.11670667 -1.5750026e-09 0)
(0.11670668 -8.9035737e-10 0)
(0.11670669 -4.9124606e-10 0)
(0.11670669 -2.6409233e-10 0)
(0.11670669 -1.3683947e-10 0)
(0.11670669 -6.7570237e-11 0)
(0.11670669 -3.0822589e-11 0)
(0.11670669 -1.2393927e-11 0)
(0.11670669 -3.5433716e-12 0)
(0.11670669 2.7217025e-13 0)
(0.11670669 1.580537e-12 0)
(0.11670669 1.7058135e-12 0)
(0.11670669 1.4147853e-12 0)
(0.11670669 1.3433642e-12 0)
(0.11670669 1.1843357e-12 0)
(0.11670669 9.7900743e-13 0)
(0.11670669 5.0308603e-13 0)
(0.11670669 1.8283614e-13 0)
(0.11670669 -9.3934844e-15 0)
(0.11670669 -6.1269711e-14 0)
(0.11670669 1.0682148e-13 0)
(0.11670669 2.8341634e-13 0)
(0.11670669 4.2938632e-13 0)
(0.11670669 5.0022205e-13 0)
(0.11670669 4.4865017e-13 0)
(0.11670669 3.5874974e-13 0)
(0.11670669 3.5179782e-13 0)
(0.11670669 2.2813641e-13 0)
(0.11670669 2.6620496e-13 0)
(0.11670669 2.1331728e-13 0)
(0.11670669 3.3843867e-13 0)
(0.11670669 3.3630687e-13 0)
(0.11670669 4.3735675e-13 0)
(0.11670669 3.8558951e-13 0)
(0.11670669 4.8324385e-13 0)
(0.11670669 4.6891707e-13 0)
(0.11670669 4.6524485e-13 0)
(0.11670669 3.2402391e-13 0)
(0.11670669 2.4586561e-13 0)
(0.11670669 -1.2625551e-13 0)
(0.11670669 -3.7471925e-14 0)
(0.11670669 -2.354105e-13 0)
(0.11670669 -1.3584156e-13 0)
(0.11670669 -3.697137e-13 0)
(0.11670669 -3.2798345e-13 0)
(0.11670669 -5.3065524e-13 0)
(0.11670669 -3.3452827e-13 0)
(0.11670669 -2.9376108e-13 0)
(0.11670669 6.5324091e-14 0)
(0.11670669 8.2158075e-14 0)
(0.11670669 2.9313567e-13 0)
(0.11670669 1.8966326e-13 0)
(0.11670669 3.5792599e-13 0)
(0.11670669 2.938111e-13 0)
(0.11670669 4.4931088e-13 0)
(0.11670669 3.7190091e-13 0)
(0.11670669 4.5132833e-13 0)
(0.11670669 3.5094008e-13 0)
(0.11670669 3.8788651e-13 0)
(0.11670669 2.9859701e-13 0)
(0.11670669 3.3023541e-13 0)
(0.11670669 2.6391077e-13 0)
(0.11670669 2.8829707e-13 0)
(0.11670669 2.2295304e-13 0)
(0.11670669 2.4750611e-13 0)
(0.11670669 1.908108e-13 0)
(0.11670669 2.1572953e-13 0)
(0.11670669 1.758874e-13 0)
(0.11670669 2.5896166e-13 0)
(0.11670669 2.8025227e-13 0)
(0.11670669 3.9002256e-13 0)
(0.11670669 2.9323201e-13 0)
(0.11670669 2.7732705e-13 0)
(0.11670669 1.2436044e-13 0)
(0.11670669 1.205212e-13 0)
(0.11670669 8.4752585e-14 0)
(0.11670669 2.3271561e-14 0)
(0.11670669 -6.3420795e-14 0)
(0.11670669 -8.7960394e-14 0)
(0.11670669 -5.0873363e-14 0)
(0.11670669 6.5962266e-14 0)
(0.11670669 1.7023592e-13 0)
(0.11670669 3.3758817e-13 0)
(0.11670669 3.9728371e-13 0)
(0.11670669 4.4649443e-13 0)
(0.11670669 3.9305378e-13 0)
(0.11670669 4.0539566e-13 0)
(0.11670669 3.5134872e-13 0)
(0.11670669 4.0539721e-13 0)
(0.11670669 3.8279389e-13 0)
(0.11670669 4.3760834e-13 0)
(0.11670669 3.9691597e-13 0)
(0.11670669 4.0988584e-13 0)
(0.11670669 3.5640135e-13 0)
(0.11670669 3.7024242e-13 0)
(0.11670669 3.4327176e-13 0)
(0.11670669 3.7670977e-13 0)
(0.11670669 3.6527353e-13 0)
(0.11670669 4.0046361e-13 0)
(0.11670669 3.8742692e-13 0)
(0.11670669 4.1697593e-13 0)
(0.11670669 4.0098631e-13 0)
(0.11670669 4.2541331e-13 0)
(0.11670669 4.0968384e-13 0)
(0.11670669 4.3031212e-13 0)
(0.11670669 4.1760203e-13 0)
(0.11670669 4.3321046e-13 0)
(0.11670669 4.2231109e-13 0)
(0.11670669 4.3404625e-13 0)
(0.11670669 4.2841177e-13 0)
(0.11670669 4.3922996e-13 0)
(0.11670669 4.37772e-13 0)
(0.11670669 4.4201036e-13 0)
(0.11670669 4.3951221e-13 0)
(0.11670669 4.4264786e-13 0)
(0.11670669 4.5019641e-13 0)
(0.11670669 4.4638822e-13 0)
(0.11670669 4.3233719e-13 0)
(0.11670669 3.9965574e-13 0)
(0.11670669 4.0826158e-13 0)
(0.11670669 4.3553709e-13 0)
(0.11670669 4.7374433e-13 0)
(0.11670669 4.2327174e-13 0)
(0.11670669 2.5401206e-13 0)
(0.11670669 4.7599638e-14 0)
(0.11670669 -1.6791321e-13 0)
(0.11670669 -2.3582335e-13 0)
(0.11670669 -2.1994351e-13 0)
(0.11670669 -2.1672566e-13 0)
(0.11670669 -3.0269031e-13 0)
(0.11670669 -3.731194e-13 0)
(0.11670669 -4.1790882e-13 0)
(0.11670669 -3.3564112e-13 0)
(0.11670669 -1.4534285e-13 0)
(0.11670669 4.2338323e-14 0)
(0.11670669 1.9563839e-13 0)
(0.11670669 2.4538034e-13 0)
(0.11670669 2.831056e-13 0)
(0.11670669 3.2956281e-13 0)
(0.11670669 3.9269401e-13 0)
(0.11670669 4.2447207e-13 0)
(0.11670669 4.4594808e-13 0)
(0.11670669 4.3897714e-13 0)
(0.11670669 4.3829474e-13 0)
(0.11670669 4.2837679e-13 0)
(0.11670669 4.345372e-13 0)
(0.11670669 4.3390905e-13 0)
(0.11670669 4.4882645e-13 0)
(0.11670669 4.539731e-13 0)
(0.11670669 4.6578342e-13 0)
(0.11670669 4.7076459e-13 0)
(0.11670669 4.8230809e-13 0)
(0.11670669 4.9283634e-13 0)
(0.11670669 5.074018e-13 0)
(0.11670669 5.05066e-13 0)
(0.11670669 5.1816972e-13 0)
(0.11670669 5.1069842e-13 0)
(0.11670669 5.5000264e-13 0)
(0.11670669 5.4297953e-13 0)
(0.11670669 5.9926393e-13 0)
(0.11670669 5.7471836e-13 0)
(0.11670669 6.419387e-13 0)
(0.11670669 6.0291601e-13 0)
(0.11670669 6.8686754e-13 0)
(0.11670669 6.2202716e-13 0)
(0.11670669 6.9617656e-13 0)
(0.11670669 5.8624819e-13 0)
(0.11670669 6.2303488e-13 0)
(0.11670669 4.5882538e-13 0)
(0.11670669 4.2202175e-13 0)
(0.11670669 2.5705212e-13 0)
(0.11670669 3.1549297e-13 0)
(0.11670669 2.5581787e-13 0)
(0.11670669 3.5656227e-13 0)
(0.11670669 2.1410367e-13 0)
(0.11670669 1.1773531e-13 0)
(0.11670669 -1.6409802e-13 0)
(0.11670669 -3.0298547e-13 0)
(0.11670669 -4.9274422e-13 0)
(0.11670669 -4.4622299e-13 0)
(0.11670669 -3.9848797e-13 0)
(0.11670669 -2.0475052e-13 0)
(0.11670669 -6.6328137e-14 0)
(0.11670669 1.0068696e-13 0)
(0.11670669 1.6408648e-13 0)
(0.11670669 3.6224447e-13 0)
(0.11670669 4.2935405e-13 0)
(0.11670669 4.5687916e-13 0)
(0.11670669 2.5594365e-13 0)
(0.11670669 9.6246425e-14 0)
(0.11670669 -1.0265365e-13 0)
(0.11670669 -1.6686861e-13 0)
(0.11670669 -3.0752021e-13 0)
(0.11670669 -4.4532906e-13 0)
(0.11670669 -5.6941268e-13 0)
(0.11670669 -5.0826518e-13 0)
(0.11670669 -4.1457357e-13 0)
(0.11670669 -1.8405602e-13 0)
(0.11670669 -2.5205826e-14 0)
(0.11670669 1.2497777e-13 0)
(0.11670669 1.9419043e-13 0)
(0.11670669 2.0045512e-13 0)
(0.11670669 7.703542e-14 0)
(0.11670669 -8.4690951e-14 0)
(0.11670669 -2.2358215e-13 0)
(0.11670669 -2.5841056e-13 0)
(0.11670669 -3.27919e-13 0)
(0.11670669 -4.2436002e-13 0)
(0.11670669 -5.4686461e-13 0)
(0.11670669 -5.366558e-13 0)
(0.11670669 -4.0404838e-13 0)
(0.11670669 -1.6136639e-13 0)
(0.11670669 6.0760426e-14 0)
(0.11670669 8.7527346e-14 0)
(0.11670669 3.16218e-14 0)
(0.11670669 -1.7279036e-13 0)
(0.11670669 -3.1881639e-13 0)
(0.11670669 -4.1981073e-13 0)
(0.11670669 -3.1851756e-13 0)
(0.11670669 -1.6153746e-13 0)
(0.11670669 7.5372877e-14 0)
(0.11670669 1.5720162e-13 0)
(0.11670669 1.4585531e-13 0)
(0.11670669 1.3391788e-15 0)
(0.11670669 -9.8218714e-14 0)
(0.11670669 -2.265209e-13 0)
(0.11670669 -2.6577965e-13 0)
(0.11670669 -3.2377655e-13 0)
(0.11670669 -2.9351753e-13 0)
(0.11670669 -2.8312515e-13 0)
(0.11670669 -8.8564465e-14 0)
(0.11670669 5.9913585e-14 0)
(0.11670669 1.7909197e-13 0)
(0.11670669 1.2093882e-13 0)
(0.11670669 3.1868744e-14 0)
(0.11670669 -2.1516513e-13 0)
(0.11670669 -3.114005e-13 0)
(0.11670669 -3.8212937e-13 0)
(0.11670669 -2.2130106e-13 0)
(0.11670669 -1.4042413e-13 0)
(0.11670669 5.4500117e-14 0)
(0.11670669 -2.3576976e-14 0)
(0.11670669 1.6467964e-14 0)
(0.11670669 -1.1974167e-13 0)
(0.11670669 -1.2863136e-13 0)
(0.11670669 -2.2727337e-13 0)
(0.11670669 -6.9474031e-14 0)
(0.11670669 3.5916074e-14 0)
(0.11670669 2.7049813e-13 0)
(0.11670669 3.3120765e-13 0)
(0.11670669 2.9907584e-13 0)
(0.11670669 8.3536121e-14 0)
(0.11670669 -8.3806318e-14 0)
(0.11670669 -1.4204664e-13 0)
(0.11670669 -5.5394024e-14 0)
(0.11670669 1.108042e-13 0)
(0.11670669 2.1619852e-13 0)
(0.11670669 2.7299554e-13 0)
(0.11670669 2.5163265e-13 0)
(0.11670669 2.5337471e-13 0)
(0.11670669 3.0398859e-13 0)
(0.11670669 4.0057439e-13 0)
(0.11670669 4.123141e-13 0)
(0.11670669 3.9659278e-13 0)
(0.11670669 4.0397393e-13 0)
(0.11670669 5.3830499e-13 0)
(0.11670669 5.4338646e-13 0)
(0.11670669 2.2062423e-13 0)
(0.11670669 -9.1731477e-14 0)
(0.50390834 0.19019021 0)
(0.43847039 0.050431496 0)
(0.29767008 0.022055308 0)
(0.25944374 0.010780096 0)
(0.22598939 0.0055621381 0)
(0.21213187 0.0032307981 0)
(0.20205719 0.0017732892 0)
(0.19716897 0.0010457375 0)
(0.19394744 0.00057679382 0)
(0.19230772 0.00033133284 0)
(0.19130242 0.00017832817 0)
(0.19079327 9.7725495e-05 0)
(0.19050201 4.9921954e-05 0)
(0.1903612 2.5325669e-05 0)
(0.19028763 1.1619419e-05 0)
(0.19025609 4.9684704e-06 0)
(0.1902425 1.5961796e-06 0)
(0.19023894 1.7338972e-07 0)
(0.19023899 -3.9980894e-07 0)
(0.19024063 -5.2244604e-07 0)
(0.19024241 -4.848706e-07 0)
(0.19024402 -3.8476677e-07 0)
(0.19024524 -2.8480032e-07 0)
(0.19024615 -1.9924409e-07 0)
(0.19024677 -1.3482491e-07 0)
(0.19024719 -8.8365212e-08 0)
(0.19024746 -5.6635251e-08 0)
(0.19024763 -3.5477009e-08 0)
(0.19024774 -2.1820826e-08 0)
(0.1902478 -1.31614e-08 0)
(0.19024784 -7.7987604e-09 0)
(0.19024787 -4.5302334e-09 0)
(0.19024788 -2.5800572e-09 0)
(0.19024789 -1.4363022e-09 0)
(0.19024789 -7.7974087e-10 0)
(0.19024789 -4.0968631e-10 0)
(0.1902479 -2.0624149e-10 0)
(0.1902479 -9.740602e-11 0)
(0.1902479 -4.164683e-11 0)
(0.1902479 -1.435628e-11 0)
(0.1902479 -2.0462931e-12 0)
(0.1902479 2.6790501e-12 0)
(0.1902479 3.8231952e-12 0)
(0.1902479 3.5692791e-12 0)
(0.1902479 3.2775983e-12 0)
(0.1902479 2.7942796e-12 0)
(0.1902479 2.1527275e-12 0)
(0.1902479 1.1745453e-12 0)
(0.1902479 4.7846303e-13 0)
(0.1902479 5.8046672e-14 0)
(0.1902479 -4.3233954e-14 0)
(0.1902479 1.7272624e-13 0)
(0.1902479 4.5471151e-13 0)
(0.1902479 7.012887e-13 0)
(0.1902479 7.9952774e-13 0)
(0.1902479 7.3315252e-13 0)
(0.1902479 5.6729281e-13 0)
(0.1902479 5.2933014e-13 0)
(0.1902479 3.6373172e-13 0)
(0.1902479 3.7658578e-13 0)
(0.1902479 3.0727822e-13 0)
(0.1902479 4.7433826e-13 0)
(0.1902479 4.9972429e-13 0)
(0.1902479 6.4517152e-13 0)
(0.1902479 5.917054e-13 0)
(0.1902479 7.3488846e-13 0)
(0.1902479 7.155341e-13 0)
(0.1902479 6.8703326e-13 0)
(0.1902479 4.5049577e-13 0)
(0.1902479 2.9755903e-13 0)
(0.1902479 -1.6215818e-13 0)
(0.1902479 -7.6908513e-14 0)
(0.1902479 -3.0243948e-13 0)
(0.1902479 -1.8383495e-13 0)
(0.1902479 -4.8863126e-13 0)
(0.1902479 -4.6714906e-13 0)
(0.1902479 -7.2664905e-13 0)
(0.1902479 -4.6514896e-13 0)
(0.1902479 -3.6098198e-13 0)
(0.1902479 1.3346512e-13 0)
(0.1902479 1.8481419e-13 0)
(0.1902479 4.2924279e-13 0)
(0.1902479 2.8609035e-13 0)
(0.1902479 4.8658509e-13 0)
(0.1902479 4.124954e-13 0)
(0.1902479 6.210618e-13 0)
(0.1902479 5.331346e-13 0)
(0.1902479 6.3309309e-13 0)
(0.1902479 5.0589886e-13 0)
(0.1902479 5.4246753e-13 0)
(0.1902479 4.2656544e-13 0)
(0.1902479 4.5675428e-13 0)
(0.1902479 3.7279371e-13 0)
(0.1902479 3.9395056e-13 0)
(0.1902479 3.1021858e-13 0)
(0.1902479 3.316481e-13 0)
(0.1902479 2.6212718e-13 0)
(0.1902479 2.8307929e-13 0)
(0.1902479 2.3813636e-13 0)
(0.1902479 3.4196628e-13 0)
(0.1902479 3.9386716e-13 0)
(0.1902479 5.3413198e-13 0)
(0.1902479 4.0433267e-13 0)
(0.1902479 3.5332897e-13 0)
(0.1902479 1.5198846e-13 0)
(0.1902479 1.6793644e-13 0)
(0.1902479 1.8007011e-13 0)
(0.1902479 1.2169169e-13 0)
(0.1902479 1.1141635e-14 0)
(0.1902479 -4.3382588e-14 0)
(0.1902479 -2.2167e-14 0)
(0.1902479 9.9390265e-14 0)
(0.1902479 2.293217e-13 0)
(0.1902479 4.4518519e-13 0)
(0.1902479 5.5562044e-13 0)
(0.1902479 6.1337887e-13 0)
(0.1902479 5.5500453e-13 0)
(0.1902479 5.6006925e-13 0)
(0.1902479 4.9398964e-13 0)
(0.1902479 5.6141644e-13 0)
(0.1902479 5.4062273e-13 0)
(0.1902479 6.1122253e-13 0)
(0.1902479 5.6155791e-13 0)
(0.1902479 5.6990818e-13 0)
(0.1902479 4.95878e-13 0)
(0.1902479 5.0487505e-13 0)
(0.1902479 4.697041e-13 0)
(0.1902479 5.1190814e-13 0)
(0.1902479 5.0060086e-13 0)
(0.1902479 5.479538e-13 0)
(0.1902479 5.3435639e-13 0)
(0.1902479 5.7427379e-13 0)
(0.1902479 5.5550448e-13 0)
(0.1902479 5.8818193e-13 0)
(0.1902479 5.6882925e-13 0)
(0.1902479 5.9621869e-13 0)
(0.1902479 5.7998751e-13 0)
(0.1902479 6.0063197e-13 0)
(0.1902479 5.8632621e-13 0)
(0.1902479 6.0191255e-13 0)
(0.1902479 5.952511e-13 0)
(0.1902479 6.1036399e-13 0)
(0.1902479 6.0979584e-13 0)
(0.1902479 6.1618645e-13 0)
(0.1902479 6.1378845e-13 0)
(0.1902479 6.1974047e-13 0)
(0.1902479 6.3201716e-13 0)
(0.1902479 6.2789209e-13 0)
(0.1902479 6.0740746e-13 0)
(0.1902479 5.617683e-13 0)
(0.1902479 5.7534818e-13 0)
(0.1902479 6.1825929e-13 0)
(0.1902479 6.7121524e-13 0)
(0.1902479 5.8294074e-13 0)
(0.1902479 3.1897758e-13 0)
(0.1902479 -2.9715924e-15 0)
(0.1902479 -2.9299876e-13 0)
(0.1902479 -3.7080106e-13 0)
(0.1902479 -3.2281444e-13 0)
(0.1902479 -3.0689478e-13 0)
(0.1902479 -4.2821155e-13 0)
(0.1902479 -5.4103357e-13 0)
(0.1902479 -6.0166581e-13 0)
(0.1902479 -4.6986382e-13 0)
(0.1902479 -1.7311016e-13 0)
(0.1902479 9.8080451e-14 0)
(0.1902479 3.0897637e-13 0)
(0.1902479 3.5348052e-13 0)
(0.1902479 3.9520364e-13 0)
(0.1902479 4.5194597e-13 0)
(0.1902479 5.4503585e-13 0)
(0.1902479 5.9313689e-13 0)
(0.1902479 6.2978854e-13 0)
(0.1902479 6.2003071e-13 0)
(0.1902479 6.2269406e-13 0)
(0.1902479 6.0531506e-13 0)
(0.1902479 6.180118e-13 0)
(0.1902479 6.1246112e-13 0)
(0.1902479 6.3760524e-13 0)
(0.1902479 6.4085895e-13 0)
(0.1902479 6.6093273e-13 0)
(0.1902479 6.6267937e-13 0)
(0.1902479 6.8312928e-13 0)
(0.1902479 6.9211919e-13 0)
(0.1902479 7.1656867e-13 0)
(0.1902479 7.0469868e-13 0)
(0.1902479 7.2617099e-13 0)
(0.1902479 7.0782679e-13 0)
(0.1902479 7.663874e-13 0)
(0.1902479 7.4996966e-13 0)
(0.1902479 8.30902e-13 0)
(0.1902479 7.8916159e-13 0)
(0.1902479 8.8409345e-13 0)
(0.1902479 8.233681e-13 0)
(0.1902479 9.4399414e-13 0)
(0.1902479 8.5171062e-13 0)
(0.1902479 9.6256384e-13 0)
(0.1902479 8.1247049e-13 0)
(0.1902479 8.7184764e-13 0)
(0.1902479 6.4515813e-13 0)
(0.1902479 6.0025856e-13 0)
(0.1902479 3.705288e-13 0)
(0.1902479 4.6196022e-13 0)
(0.1902479 3.8223023e-13 0)
(0.1902479 5.2581993e-13 0)
(0.1902479 3.0869583e-13 0)
(0.1902479 1.5358254e-13 0)
(0.1902479 -2.6223585e-13 0)
(0.1902479 -4.5890256e-13 0)
(0.1902479 -7.0486621e-13 0)
(0.1902479 -6.1427195e-13 0)
(0.1902479 -5.1751783e-13 0)
(0.1902479 -2.1881535e-13 0)
(0.1902479 -3.8391199e-14 0)
(0.1902479 1.8141018e-13 0)
(0.1902479 2.4547097e-13 0)
(0.1902479 5.2234715e-13 0)
(0.1902479 6.1382775e-13 0)
(0.1902479 6.4977293e-13 0)
(0.1902479 3.4470053e-13 0)
(0.1902479 1.1008248e-13 0)
(0.1902479 -1.5674518e-13 0)
(0.1902479 -2.2779339e-13 0)
(0.1902479 -4.1764659e-13 0)
(0.1902479 -6.1251834e-13 0)
(0.1902479 -7.9407976e-13 0)
(0.1902479 -6.9940664e-13 0)
(0.1902479 -5.5324878e-13 0)
(0.1902479 -2.1787912e-13 0)
(0.1902479 -1.6134283e-14 0)
(0.1902479 1.8573497e-13 0)
(0.1902479 2.5798131e-13 0)
(0.1902479 2.5100999e-13 0)
(0.1902479 5.7168808e-14 0)
(0.1902479 -1.7587982e-13 0)
(0.1902479 -3.5368455e-13 0)
(0.1902479 -3.7696081e-13 0)
(0.1902479 -4.5135236e-13 0)
(0.1902479 -5.8038721e-13 0)
(0.1902479 -7.509139e-13 0)
(0.1902479 -7.2818695e-13 0)
(0.1902479 -5.1820625e-13 0)
(0.1902479 -1.5663328e-13 0)
(0.1902479 1.3611626e-13 0)
(0.1902479 1.5430441e-13 0)
(0.1902479 2.7435415e-14 0)
(0.1902479 -2.8460044e-13 0)
(0.1902479 -4.9213759e-13 0)
(0.1902479 -6.1327553e-13 0)
(0.1902479 -4.2763435e-13 0)
(0.1902479 -1.6211671e-13 0)
(0.1902479 1.7023859e-13 0)
(0.1902479 2.7099553e-13 0)
(0.1902479 2.0689134e-13 0)
(0.1902479 -4.1402792e-14 0)
(0.1902479 -2.0173046e-13 0)
(0.1902479 -3.790068e-13 0)
(0.1902479 -4.0983429e-13 0)
(0.1902479 -4.6487885e-13 0)
(0.1902479 -3.9432096e-13 0)
(0.1902479 -3.5462109e-13 0)
(0.1902479 -7.0300715e-14 0)
(0.1902479 1.2591393e-13 0)
(0.1902479 2.7216915e-13 0)
(0.1902479 1.6144789e-13 0)
(0.1902479 6.9653911e-15 0)
(0.1902479 -3.4273903e-13 0)
(0.1902479 -4.6274111e-13 0)
(0.1902479 -5.2280419e-13 0)
(0.1902479 -2.5376031e-13 0)
(0.1902479 -1.3299739e-13 0)
(0.1902479 1.0185526e-13 0)
(0.1902479 -4.6075192e-14 0)
(0.1902479 -6.360307e-14 0)
(0.1902479 -2.9595029e-13 0)
(0.1902479 -3.0637803e-13 0)
(0.1902479 -4.261305e-13 0)
(0.1902479 -1.5001486e-13 0)
(0.1902479 3.8893522e-14 0)
(0.1902479 3.7754453e-13 0)
(0.1902479 4.5971218e-13 0)
(0.1902479 3.7818089e-13 0)
(0.1902479 3.2675228e-14 0)
(0.1902479 -1.9151194e-13 0)
(0.1902479 -2.6501272e-13 0)
(0.1902479 -7.7088049e-14 0)
(0.1902479 1.9248597e-13 0)
(0.1902479 3.6417292e-13 0)
(0.1902479 4.3016922e-13 0)
(0.1902479 3.7788841e-13 0)
(0.1902479 3.4902134e-13 0)
(0.1902479 4.2171494e-13 0)
(0.1902479 5.5422954e-13 0)
(0.1902479 5.8575554e-13 0)
(0.1902479 5.5753094e-13 0)
(0.1902479 5.837628e-13 0)
(0.1902479 7.770616e-13 0)
(0.1902479 7.8633442e-13 0)
(0.1902479 2.7626822e-13 0)
(0.1902479 -1.5993624e-13 0)
(0.59346672 0.21467329 0)
(0.54593347 0.075998398 0)
(0.39702192 0.03931229 0)
(0.34953974 0.019720553 0)
(0.30792187 0.010726734 0)
(0.28963523 0.0061583766 0)
(0.27651264 0.0034761843 0)
(0.26994405 0.0020291046 0)
(0.26565503 0.0011409898 0)
(0.26342423 0.00065140597 0)
(0.26206335 0.00035633242 0)
(0.26136077 0.00019487301 0)
(0.26095907 0.00010129402 0)
(0.26076048 5.1591653e-05 0)
(0.260656 2.4316581e-05 0)
(0.26060945 1.0644474e-05 0)
(0.26058866 3.761039e-06 0)
(0.26058217 7.1197305e-07 0)
(0.26058122 -5.4235637e-07 0)
(0.26058278 -8.8398559e-07 0)
(0.2605848 -8.6435167e-07 0)
(0.26058673 -7.0538151e-07 0)
(0.26058825 -5.2963212e-07 0)
(0.26058939 -3.7482954e-07 0)
(0.26059018 -2.5552087e-07 0)
(0.26059072 -1.6864252e-07 0)
(0.26059108 -1.0865152e-07 0)
(0.2605913 -6.8420091e-08 0)
(0.26059144 -4.22685e-08 0)
(0.26059153 -2.5613865e-08 0)
(0.26059159 -1.5245532e-08 0)
(0.26059162 -8.9018459e-09 0)
(0.26059163 -5.0973419e-09 0)
(0.26059165 -2.8554286e-09 0)
(0.26059165 -1.5609157e-09 0)
(0.26059165 -8.2778103e-10 0)
(0.26059166 -4.2234871e-10 0)
(0.26059166 -2.038313e-10 0)
(0.26059166 -9.0329714e-11 0)
(0.26059166 -3.3929235e-11 0)
(0.26059166 -7.9093353e-12 0)
(0.26059166 2.7376661e-12 0)
(0.26059166 6.056936e-12 0)
(0.26059166 6.3534062e-12 0)
(0.26059166 5.7833771e-12 0)
(0.26059166 4.5817223e-12 0)
(0.26059166 3.1748867e-12 0)
(0.26059166 1.6170899e-12 0)
(0.26059166 5.7537156e-13 0)
(0.26059166 -1.2749284e-14 0)
(0.26059166 -1.7043973e-13 0)
(0.26059166 2.2816213e-14 0)
(0.26059166 2.9465548e-13 0)
(0.26059166 5.5215222e-13 0)
(0.26059166 6.0322076e-13 0)
(0.26059166 5.3797236e-13 0)
(0.26059166 3.4617723e-13 0)
(0.26059166 2.7747465e-13 0)
(0.26059166 1.0374703e-13 0)
(0.26059166 1.2110617e-13 0)
(0.26059166 2.0196505e-14 0)
(0.26059166 1.8986322e-13 0)
(0.26059166 2.1751572e-13 0)
(0.26059166 4.0002213e-13 0)
(0.26059166 3.6949187e-13 0)
(0.26059166 5.1664699e-13 0)
(0.26059166 4.4884398e-13 0)
(0.26059166 3.8831579e-13 0)
(0.26059166 1.3239689e-13 0)
(0.26059166 5.7958471e-14 0)
(0.26059166 -3.0613272e-13 0)
(0.26059166 -5.7886814e-14 0)
(0.26059166 -1.8924555e-13 0)
(0.26059166 2.0383157e-14 0)
(0.26059166 -2.471546e-13 0)
(0.26059166 -1.632096e-13 0)
(0.26059166 -4.0095202e-13 0)
(0.26059166 -9.257735e-14 0)
(0.26059166 -3.9738687e-14 0)
(0.26059166 3.9945155e-13 0)
(0.26059166 2.9325406e-13 0)
(0.26059166 4.588965e-13 0)
(0.26059166 1.7531249e-13 0)
(0.26059166 3.2990924e-13 0)
(0.26059166 1.7640347e-13 0)
(0.26059166 3.8279343e-13 0)
(0.26059166 2.6383983e-13 0)
(0.26059166 3.8443625e-13 0)
(0.26059166 2.3925113e-13 0)
(0.26059166 2.9192736e-13 0)
(0.26059166 1.555353e-13 0)
(0.26059166 1.9390584e-13 0)
(0.26059166 8.6733229e-14 0)
(0.26059166 1.1271539e-13 0)
(0.26059166 9.117747e-15 0)
(0.26059166 3.5775318e-14 0)
(0.26059166 -5.2624444e-14 0)