/*--------------------------------*- C++ -*----------------------------------*\
| =========                 |                                                 |
| \\      /  F ield         | OpenFOAM: The Open Source CFD Toolbox           |
|  \\    /   O peration     | Version:  2206                                  |
|   \\  /    A nd           | Website:  www.openfoam.com                      |
|    \\/     M anipulation  |                                                 |
\*---------------------------------------------------------------------------*/
FoamFile
{
    version     2.0;
    format      ascii;
    arch        "LSB;label=32;scalar=64";
    class       surfaceScalarField;
    location    "9";
    object      phi;
}
// * * * * * * * * * * * * * * * * * * * * * * * * * * * * * * * * * * * * * //

dimensions      [0 3 -1 0 0 0 0];

oriented        oriented;

internalField   nonuniform List<scalar> 
29650
(
6.0867648e-05
0.00020579915
3.271817e-05
2.8149475e-05
2.4599021e-05
8.119147e-06
2.0417849e-05
4.1811734e-06
1.8552178e-05
1.8656732e-06
1.73737e-05
1.1784816e-06
1.6781661e-05
5.9204368e-07
1.6412314e-05
3.6935169e-07
1.622082e-05
1.9149851e-07
1.6106685e-05
1.1413749e-07
1.6048258e-05
5.842854e-08
1.6015474e-05
3.278305e-08
1.5999542e-05
1.5930585e-08
1.5991376e-05
8.1638873e-09
1.5987889e-05
3.4856221e-09
1.598644e-05
1.4476565e-09
1.5986091e-05
3.4916666e-10
1.5986138e-05
-4.8178094e-11
1.598635e-05
-2.1126292e-10
1.5986569e-05
-2.19971e-10
1.5986762e-05
-1.9229168e-10
1.5986908e-05
-1.4609474e-10
1.5987014e-05
-1.0612134e-10
1.5987087e-05
-7.2790775e-11
1.5987136e-05
-4.8755609e-11
1.5987167e-05
-3.1583811e-11
1.5987187e-05
-2.0101263e-11
1.59872e-05
-1.2485127e-11
1.5987208e-05
-7.6320559e-12
1.5987212e-05
-4.5706815e-12
1.5987215e-05
-2.6934418e-12
1.5987216e-05
-1.5552831e-12
1.5987217e-05
-8.7998659e-13
1.5987218e-05
-4.8590102e-13
1.5987218e-05
-2.6119512e-13
1.5987218e-05
-1.3634879e-13
1.5987218e-05
-6.7678212e-14
1.5987218e-05
-3.1718249e-14
1.5987218e-05
-1.3006627e-14
1.5987218e-05
-4.8410297e-15
1.5987218e-05
-1.4227785e-15
1.5987218e-05
-5.5731756e-16
1.5987218e-05
1.0800673e-16
1.5987218e-05
-3.8643633e-17
1.5987218e-05
5.4524981e-18
1.5987218e-05
-3.018142e-16
1.5987218e-05
-3.1050355e-16
1.5987218e-05
-3.5569841e-16
1.5987218e-05
-3.7211311e-16
1.5987218e-05
-3.1906452e-16
1.5987218e-05
-4.7856486e-16
1.5987218e-05
-1.7125022e-16
1.5987218e-05
-3.3275688e-16
1.5987218e-05
-4.1937953e-17
1.5987218e-05
-3.1272454e-16
1.5987218e-05
1.2954349e-17
1.5987218e-05
-8.8149655e-19
1.5987218e-05
4.9023743e-16
1.5987218e-05
3.6385853e-17
1.5987218e-05
4.7059022e-16
1.5987218e-05
1.8852353e-17
1.5987218e-05
5.5084802e-16
1.5987218e-05
1.6569038e-17
1.5987218e-05
3.5760542e-16
1.5987218e-05
-3.7352424e-16
1.5987218e-05
-7.1190822e-17
1.5987218e-05
-4.144474e-16
1.5987218e-05
1.3011855e-16
1.5987218e-05
5.2067078e-17
1.5987218e-05
3.3509287e-16
1.5987218e-05
-2.9161905e-16
1.5987218e-05
7.0895963e-17
1.5987218e-05
-4.3434629e-17
1.5987218e-05
5.7641968e-16
1.5987218e-05
5.56591e-16
1.5987218e-05
9.7383941e-16
1.5987218e-05
7.1401459e-16
1.5987218e-05
9.1854234e-16
1.5987218e-05
7.1068229e-16
1.5987218e-05
9.3819829e-16
1.5987218e-05
7.9665401e-16
1.5987218e-05
9.6851235e-16
1.5987218e-05
8.5139494e-16
1.5987218e-05
9.5909826e-16
1.5987218e-05
8.769458e-16
1.5987218e-05
9.32769e-16
1.5987218e-05
8.9745982e-16
1.5987218e-05
8.9959436e-16
1.5987218e-05
9.1074464e-16
1.5987218e-05
8.4889718e-16
1.5987218e-05
9.0123764e-16
1.5987218e-05
7.6141632e-16
1.5987218e-05
8.4568787e-16
1.5987218e-05
6.5176628e-16
1.5987218e-05
8.0178564e-16
1.5987218e-05
5.5354616e-16
1.5987218e-05
6.8847085e-16
1.5987218e-05
4.1596595e-16
1.5987218e-05
6.7176195e-16
1.5987218e-05
5.1524489e-16
1.5987218e-05
8.3189438e-16
1.5987218e-05
4.983736e-16
1.5987218e-05
4.7713061e-16
1.5987218e-05
-2.5046707e-16
1.5987218e-05
-3.4117839e-16
1.5987218e-05
-8.1600565e-16
1.5987218e-05
-4.1665663e-16
1.5987218e-05
-3.7784405e-16
1.5987218e-05
1.9011966e-16
1.5987218e-05
1.8374399e-16
1.5987218e-05
4.3327591e-16
1.5987218e-05
1.0447682e-16
1.5987218e-05
1.1758151e-16
1.5987218e-05
-1.4886739e-16
1.5987218e-05
3.4640283e-16
1.5987218e-05
1.6897707e-16
1.5987218e-05
5.6357696e-16
1.5987218e-05
2.5604465e-16
1.5987218e-05
5.034026e-16
1.5987218e-05
1.6845572e-16
1.5987218e-05
4.1532091e-16
1.5987218e-05
1.8602875e-16
1.5987218e-05
4.6266569e-16
1.5987218e-05
2.9916165e-16
1.5987218e-05
5.1362444e-16
1.5987218e-05
3.4484864e-16
1.5987218e-05
4.924102e-16
1.5987218e-05
3.397812e-16
1.5987218e-05
4.6329891e-16
1.5987218e-05
3.3660052e-16
1.5987218e-05
4.4212032e-16
1.5987218e-05
3.3212929e-16
1.5987218e-05
4.2284461e-16
1.5987218e-05
3.241261e-16
1.5987218e-05
4.0220262e-16
1.5987218e-05
3.1244358e-16
1.5987218e-05
3.7816112e-16
1.5987218e-05
2.9508779e-16
1.5987218e-05
3.4682601e-16
1.5987218e-05
2.7353688e-16
1.5987218e-05
3.1394394e-16
1.5987218e-05
2.5726976e-16
1.5987218e-05
2.8183849e-16
1.5987218e-05
2.4046367e-16
1.5987218e-05
2.508344e-16
1.5987218e-05
2.4955891e-16
1.5987218e-05
2.6535407e-16
1.5987218e-05
2.7145411e-16
1.5987218e-05
2.2554909e-16
1.5987218e-05
2.325789e-16
1.5987218e-05
2.4319572e-16
1.5987218e-05
4.1359126e-16
1.5987218e-05
4.4398401e-16
1.5987218e-05
4.1132413e-16
1.5987218e-05
-1.7040841e-17
1.5987218e-05
-3.5740453e-16
1.5987218e-05
-7.3623875e-16
1.5987218e-05
-6.4192426e-16
1.5987218e-05
-4.7435601e-16
1.5987218e-05
1.895158e-17
1.5987218e-05
2.195179e-16
1.5987218e-05
5.5685598e-16
1.5987218e-05
5.3235386e-16
1.5987218e-05
5.6345638e-16
1.5987218e-05
3.4349041e-16
1.5987218e-05
3.781513e-16
1.5987218e-05
2.9161968e-16
1.5987218e-05
3.927025e-16
1.5987218e-05
3.3523254e-16
1.5987218e-05
4.2773236e-16
1.5987218e-05
3.5406743e-16
1.5987218e-05
4.2929324e-16
1.5987218e-05
3.4655843e-16
1.5987218e-05
4.1365311e-16
1.5987218e-05
3.2970563e-16
1.5987218e-05
3.9417708e-16
1.5987218e-05
3.0621591e-16
1.5987218e-05
3.7515429e-16
1.5987218e-05
2.9461587e-16
1.5987218e-05
3.8323931e-16
1.5987218e-05
3.2147424e-16
1.5987218e-05
4.1938725e-16
1.5987218e-05
3.6354233e-16
1.5987218e-05
4.7086159e-16
1.5987218e-05
4.250458e-16
1.5987218e-05
5.1817105e-16
1.5987218e-05
4.7086933e-16
1.5987218e-05
5.5892019e-16
1.5987218e-05
5.3679793e-16
1.5987218e-05
6.0032951e-16
1.5987218e-05
5.6941699e-16
1.5987218e-05
6.2991729e-16
1.5987218e-05
7.104568e-16
1.5987218e-05
8.337539e-16
1.5987218e-05
8.7425036e-16
1.5987218e-05
7.3304454e-16
1.5987218e-05
4.7438258e-16
1.5987218e-05
9.5999218e-17
1.5987218e-05
-7.053351e-17
1.5987218e-05
-3.0945785e-16
1.5987218e-05
-3.0630777e-16
1.5987218e-05
-3.8589655e-16
1.5987218e-05
-3.191084e-16
1.5987218e-05
-4.7997945e-16
1.5987218e-05
-5.4003329e-16
1.5987218e-05
-7.4618105e-16
1.5987218e-05
-6.7834982e-16
1.5987218e-05
-5.7681155e-16
1.5987218e-05
-1.6948269e-16
1.5987218e-05
6.3428541e-17
1.5987218e-05
3.3917301e-16
1.5987218e-05
3.6623414e-16
1.5987218e-05
4.2106362e-16
1.5987218e-05
3.5525107e-16
1.5987218e-05
4.2979683e-16
1.5987218e-05
4.0045606e-16
1.5987218e-05
4.9147938e-16
1.5987218e-05
4.4801528e-16
1.5987218e-05
5.2097906e-16
1.5987218e-05
4.6600246e-16
1.5987218e-05
5.1906055e-16
1.5987218e-05
4.4691616e-16
1.5987218e-05
4.5709272e-16
1.5987218e-05
3.5402956e-16
1.5987218e-05
3.2874854e-16
1.5987218e-05
2.5234992e-16
1.5987218e-05
2.6741845e-16
1.5987218e-05
2.1449036e-16
1.5987218e-05
2.2308272e-16
1.5987218e-05
2.608477e-16
1.5987218e-05
3.9590897e-16
1.5987218e-05
4.9503965e-16
1.5987218e-05
4.5259374e-16
1.5987218e-05
2.2473678e-16
1.5987218e-05
-5.1050983e-17
1.5987218e-05
-3.4134343e-16
1.5987218e-05
-5.3574389e-16
1.5987218e-05
-6.6035586e-16
1.5987218e-05
-6.8295511e-16
1.5987218e-05
-5.8726945e-16
1.5987218e-05
-3.1665901e-16
1.5987218e-05
7.7551681e-17
1.5987218e-05
3.8192717e-16
1.5987218e-05
5.0468518e-16
1.5987218e-05
2.7003039e-16
1.5987218e-05
-5.133001e-17
1.5987218e-05
-4.5200236e-16
1.5987218e-05
-6.4403838e-16
1.5987218e-05
-5.9421653e-16
1.5987218e-05
-2.6118461e-16
1.5987218e-05
1.6239302e-16
1.5987218e-05
6.0169106e-16
1.5987218e-05
7.6696739e-16
1.5987218e-05
6.4451861e-16
1.5987218e-05
2.324166e-16
1.5987218e-05
-2.2208814e-16
1.5987218e-05
-5.28471e-16
1.5987218e-05
-5.3576344e-16
1.5987218e-05
-2.4873857e-16
1.5987218e-05
7.9804104e-17
1.5987218e-05
3.8567195e-16
1.5987218e-05
5.0438348e-16
1.5987218e-05
5.1134953e-16
1.5987218e-05
4.1271138e-16
1.5987218e-05
3.7670514e-16
1.5987218e-05
3.4557688e-16
1.5987218e-05
3.7420559e-16
1.5987218e-05
3.4966525e-16
1.5987218e-05
3.7983127e-16
1.5987218e-05
4.249765e-16
1.5987218e-05
5.3783587e-16
1.5987218e-05
5.6985539e-16
1.5987218e-05
4.6525191e-16
1.5987218e-05
1.810276e-16
1.5987218e-05
-1.3704405e-16
1.5987218e-05
-4.0855054e-16
1.5987218e-05
-5.2209545e-16
1.5987218e-05
-5.0315541e-16
1.5987218e-05
-4.4998987e-16
1.5987218e-05
-4.0100534e-16
1.5987218e-05
-4.4545877e-16
1.5987218e-05
-5.3562388e-16
1.5987218e-05
-6.6638458e-16
1.5987218e-05
-6.5490174e-16
1.5987218e-05
-4.8455887e-16
1.5987218e-05
-1.1250111e-16
1.5987218e-05
1.779988e-16
1.5987218e-05
4.102218e-16
1.5987218e-05
4.119625e-16
1.5987218e-05
4.0030765e-16
1.5987218e-05
3.2740658e-16
1.5987218e-05
3.7864123e-16
1.5987218e-05
3.6443438e-16
1.5987218e-05
4.0785553e-16
1.5987218e-05
3.1872257e-16
1.5987218e-05
4.4677016e-16
1.5987218e-05
5.9923782e-16
1.5987218e-05
6.8449092e-16
1.5987218e-05
1.9886455e-16
-9.7978265e-17
0.00014027132
0.00033219463
9.2549243e-05
7.5871547e-05
7.0338072e-05
3.0330318e-05
5.9620314e-05
1.4898936e-05
5.4019642e-05
7.4663493e-06
5.0795344e-05
4.4027855e-06
4.9011049e-05
2.3763438e-06
4.7964745e-05
1.4156641e-06
4.7384384e-05
7.7186703e-07
4.7052233e-05
4.4629477e-07
4.6872682e-05
2.3798383e-07
4.677453e-05
1.309362e-07
4.6724187e-05
6.6273644e-08
4.6698685e-05
3.3664057e-08
4.6686925e-05
1.5244486e-08
4.6681893e-05
6.4782238e-09
4.6680252e-05
1.9890105e-09
4.6680058e-05
1.4503837e-10
4.6680445e-05
-5.9833015e-10
4.6680961e-05
-7.3673813e-10
4.6681443e-05
-6.7378359e-10
4.6681826e-05
-5.2940833e-10
4.668211e-05
-3.9007901e-10
4.6682309e-05
-2.7167248e-10
4.6682444e-05
-1.8339732e-10
4.6682532e-05
-1.1990878e-10
4.6682589e-05
-7.6750671e-11
4.6682624e-05
-4.8002266e-11
4.6682646e-05
-2.9491608e-11
4.6682659e-05
-1.776729e-11
4.6682667e-05
-1.0523058e-11
4.6682672e-05
-6.1134997e-12
4.6682674e-05
-3.4818071e-12
4.6682676e-05
-1.9378567e-12
4.6682676e-05
-1.0509665e-12
4.6682677e-05
-5.5345066e-13
4.6682677e-05
-2.7956611e-13
4.6682677e-05
-1.3371075e-13
4.6682677e-05
-5.7673673e-14
4.6682677e-05
-2.1919822e-14
4.6682677e-05
-6.14139e-15
4.6682677e-05
-5.8072908e-16
4.6682677e-05
1.8246948e-15
4.6682677e-05
1.9001063e-15
4.6682677e-05
1.8008249e-15
4.6682677e-05
9.7325788e-16
4.6682677e-05
6.4069252e-16
4.6682677e-05
4.4912687e-16
4.6682677e-05
3.1022609e-17
4.6682677e-05
-9.9214273e-18
4.6682677e-05
-6.9213319e-16
4.6682677e-05
-1.327553e-16
4.6682677e-05
-5.5860851e-16
4.6682677e-05
-5.4635615e-18
4.6682677e-05
-6.2871509e-16
4.6682677e-05
-7.1966789e-17
4.6682677e-05
-1.2034923e-16
4.6682677e-05
1.0008503e-15
4.6682677e-05
1.8506237e-16
4.6682677e-05
1.182533e-15
4.6682677e-05
1.9331743e-16
4.6682677e-05
1.2243979e-15
4.6682677e-05
1.4395922e-17
4.6682677e-05
6.1951087e-16
4.6682677e-05
-9.1887942e-16
4.6682677e-05
-3.6665259e-16
4.6682677e-05
-9.2848183e-16
4.6682677e-05
1.2006167e-16
4.6682677e-05
-4.1251749e-17
4.6682677e-05
5.5698678e-16
4.6682677e-05
-6.3656591e-16
4.6682677e-05
2.3695364e-16
4.6682677e-05
2.0061478e-16
4.6682677e-05
1.6361229e-15
4.6682677e-05
1.5908715e-15
4.6682677e-05
2.3678017e-15
4.6682677e-05
1.6116605e-15
4.6682677e-05
1.9328633e-15
4.6682677e-05
1.3562134e-15
4.6682677e-05
1.821601e-15
4.6682677e-05
1.4737798e-15
4.6682677e-05
1.8715479e-15
4.6682677e-05
1.5855703e-15
4.6682677e-05
1.8570469e-15
4.6682677e-05
1.6352247e-15
4.6682677e-05
1.805092e-15
4.6682677e-05
1.6677741e-15
4.6682677e-05
1.7395661e-15
4.6682677e-05
1.691879e-15
4.6682677e-05
1.6464594e-15
4.6682677e-05
1.6739987e-15
4.6682677e-05
1.4779354e-15
4.6682677e-05
1.5547429e-15
4.6682677e-05
1.2763941e-15
4.6682677e-05
1.4878987e-15
4.6682677e-05
1.087445e-15
4.6682677e-05
1.2063057e-15
4.6682677e-05
7.7883083e-16
4.6682677e-05
1.2660268e-15
4.6682677e-05
1.1245665e-15
4.6682677e-05
1.6758773e-15
4.6682677e-05
1.0448331e-15
4.6682677e-05
6.5922886e-16
4.6682677e-05
-8.3602169e-16
4.6682677e-05
-1.2818993e-15
4.6682677e-05
-2.1583194e-15
4.6682677e-05
-1.2682569e-15
4.6682677e-05
-9.1050436e-16
4.6682677e-05
4.1724735e-16
4.6682677e-05
5.1732586e-16
4.6682677e-05
8.7848804e-16
4.6682677e-05
1.2342371e-16
4.6682677e-05
-2.2360063e-17
4.6682677e-05
-4.6381677e-16
4.6682677e-05
3.2308472e-16
4.6682677e-05
2.5777347e-16
4.6682677e-05
8.5948172e-16
4.6682677e-05
4.8536312e-16
4.6682677e-05
7.5990338e-16
4.6682677e-05
2.6542198e-16
4.6682677e-05
5.4403086e-16
4.6682677e-05
2.6162766e-16
4.6682677e-05
6.7587118e-16
4.6682677e-05
5.5734508e-16
4.6682677e-05
8.7740327e-16
4.6682677e-05
7.1122809e-16
4.6682677e-05
8.7636321e-16
4.6682677e-05
7.0361469e-16
4.6682677e-05
8.2117453e-16
4.6682677e-05
6.8720527e-16
4.6682677e-05
7.7820992e-16
4.6682677e-05
6.6973527e-16
4.6682677e-05
7.3678933e-16
4.6682677e-05
6.4927554e-16
4.6682677e-05
6.9593741e-16
4.6682677e-05
6.2609633e-16
4.6682677e-05
6.5104277e-16
4.6682677e-05
5.9538403e-16
4.6682677e-05
5.9340711e-16
4.6682677e-05
5.5457053e-16
4.6682677e-05
5.3623808e-16
4.6682677e-05
5.2781748e-16
4.6682677e-05
4.8014429e-16
4.6682677e-05
4.892093e-16
4.6682677e-05
4.266462e-16
4.6682677e-05
5.1974504e-16
4.6682677e-05
4.9228493e-16
4.6682677e-05
5.7096523e-16
4.6682677e-05
3.9491846e-16
4.6682677e-05
4.4703439e-16
4.6682677e-05
4.8060201e-16
4.6682677e-05
9.458438e-16
4.6682677e-05
9.8917947e-16
4.6682677e-05
8.8240721e-16
4.6682677e-05
-3.0724376e-16
4.6682677e-05
-1.1484231e-15
4.6682677e-05
-1.9013359e-15
4.6682677e-05
-1.5260119e-15
4.6682677e-05
-7.9361698e-16
4.6682677e-05
3.5776375e-16
4.6682677e-05
8.8546284e-16
4.6682677e-05
1.4820127e-15
4.6682677e-05
1.2896001e-15
4.6682677e-05
1.2132867e-15
4.6682677e-05
6.8232163e-16
4.6682677e-05
6.8512601e-16
4.6682677e-05
4.9315485e-16
4.6682677e-05
6.8314111e-16
4.6682677e-05
5.9066063e-16
4.6682677e-05
7.8076108e-16
4.6682677e-05
6.5312804e-16
4.6682677e-05
7.9819356e-16
4.6682677e-05
6.4485348e-16
4.6682677e-05
7.6694292e-16
4.6682677e-05
6.1280811e-16
4.6682677e-05
7.2590759e-16
4.6682677e-05
5.7005006e-16
4.6682677e-05
6.8842511e-16
4.6682677e-05
5.5583903e-16
4.6682677e-05
7.1088479e-16
4.6682677e-05
6.0938958e-16
4.6682677e-05
7.7785162e-16
4.6682677e-05
6.8352701e-16
4.6682677e-05
8.7897845e-16
4.6682677e-05
8.0039321e-16
4.6682677e-05
9.5454304e-16
4.6682677e-05
8.6945556e-16
4.6682677e-05
1.0226623e-15
4.6682677e-05
1.0060685e-15
4.6682677e-05
1.1067611e-15
4.6682677e-05
1.0471132e-15
4.6682677e-05
1.1623602e-15
4.6682677e-05
1.3990268e-15
4.6682677e-05
1.6701198e-15
4.6682677e-05
1.705737e-15
4.6682677e-05
1.2943159e-15
4.6682677e-05
5.6633044e-16
4.6682677e-05
-2.9252489e-16
4.6682677e-05
-6.3889673e-16
4.6682677e-05
-1.0184744e-15
4.6682677e-05
-8.6566326e-16
4.6682677e-05
-8.9369942e-16
4.6682677e-05
-6.5417419e-16
4.6682677e-05
-9.3408953e-16
4.6682677e-05
-1.1391445e-15
4.6682677e-05
-1.5752194e-15
4.6682677e-05
-1.4193162e-15
4.6682677e-05
-1.038979e-15
4.6682677e-05
-8.1013798e-17
4.6682677e-05
5.1545578e-16
4.6682677e-05
1.035566e-15
4.6682677e-05
9.9753866e-16
4.6682677e-05
9.7354931e-16
4.6682677e-05
7.4088733e-16
4.6682677e-05
8.174826e-16
4.6682677e-05
7.371116e-16
4.6682677e-05
9.3298013e-16
4.6682677e-05
8.599748e-16
4.6682677e-05
1.0345197e-15
4.6682677e-05
9.3478616e-16
4.6682677e-05
1.0609873e-15
4.6682677e-05
9.1029906e-16
4.6682677e-05
9.4324753e-16
4.6682677e-05
7.2811412e-16
4.6682677e-05
6.6687269e-16
4.6682677e-05
5.1128245e-16
4.6682677e-05
5.0241717e-16
4.6682677e-05
3.8087761e-16
4.6682677e-05
3.6943093e-16
4.6682677e-05
4.7337086e-16
4.6682677e-05
8.1113306e-16
4.6682677e-05
1.0714081e-15
4.6682677e-05
8.5307642e-16
4.6682677e-05
2.8400044e-16
4.6682677e-05
-4.958383e-16
4.6682677e-05
-1.1091233e-15
4.6682677e-05
-1.4713383e-15
4.6682677e-05
-1.6552991e-15
4.6682677e-05
-1.5586241e-15
4.6682677e-05
-1.2250777e-15
4.6682677e-05
-3.4677022e-16
4.6682677e-05
6.2244171e-16
4.6682677e-05
1.3184152e-15
4.6682677e-05
1.4174792e-15
4.6682677e-05
5.6201456e-16
4.6682677e-05
-3.5219987e-16
4.6682677e-05
-1.4162413e-15
4.6682677e-05
-1.8243782e-15
4.6682677e-05
-1.4740844e-15
4.6682677e-05
-5.4621297e-16
4.6682677e-05
6.8771053e-16
4.6682677e-05
1.7295483e-15
4.6682677e-05
2.0290486e-15
4.6682677e-05
1.5472646e-15
4.6682677e-05
3.2943346e-16
4.6682677e-05
-8.7572572e-16
4.6682677e-05
-1.5714507e-15
4.6682677e-05
-1.399991e-15
4.6682677e-05
-5.1740004e-16
4.6682677e-05
4.2247794e-16
4.6682677e-05
1.1675451e-15
4.6682677e-05
1.3864438e-15
4.6682677e-05
1.2782548e-15
4.6682677e-05
9.4863481e-16
4.6682677e-05
7.6252386e-16
4.6682677e-05
6.3054304e-16
4.6682677e-05
6.5853609e-16
4.6682677e-05
5.7475268e-16
4.6682677e-05
6.6876747e-16
4.6682677e-05
8.1944879e-16
4.6682677e-05
1.1505817e-15
4.6682677e-05
1.2097052e-15
4.6682677e-05
8.8959633e-16
4.6682677e-05
1.5278697e-16
4.6682677e-05
-6.6764482e-16
4.6682677e-05
-1.2170005e-15
4.6682677e-05
-1.3725944e-15
4.6682677e-05
-1.2079629e-15
4.6682677e-05
-9.4787698e-16
4.6682677e-05
-7.6454128e-16
4.6682677e-05
-8.3075385e-16
4.6682677e-05
-1.0649117e-15
4.6682677e-05
-1.3760511e-15
4.6682677e-05
-1.33015e-15
4.6682677e-05
-7.8535711e-16
4.6682677e-05
8.2230677e-17
4.6682677e-05
7.9645818e-16
4.6682677e-05
1.2169611e-15
4.6682677e-05
1.063655e-15
4.6682677e-05
9.2380969e-16
4.6682677e-05
6.5558775e-16
4.6682677e-05
7.1024164e-16
4.6682677e-05
6.6171312e-16
4.6682677e-05
7.0977453e-16
4.6682677e-05
5.0169838e-16
4.6682677e-05
8.1532502e-16
4.6682677e-05
1.3360626e-15
4.6682677e-05
1.4760474e-15
4.6682677e-05
4.1165256e-17
-6.2846282e-16
0.00019469214
0.00040416928
0.00014360962
0.00012695407
0.00011230147
6.1638462e-05
9.6619294e-05
3.0581116e-05
8.7762221e-05
1.6323423e-05
8.2755406e-05
9.4096001e-06
7.9871701e-05
5.2600483e-06
7.8206033e-05
3.0813313e-06
7.7256668e-05
1.7212321e-06
7.6718194e-05
9.847681e-07
7.6420462e-05
5.3571612e-07
7.6258218e-05
2.9318084e-07
7.6172993e-05
1.5149926e-07
7.61296e-05
7.7057533e-08
7.6108851e-05
3.5993589e-08
7.6099695e-05
1.5634065e-08
7.6096324e-05
5.3600276e-09
7.6095587e-05
8.819546e-10
7.6095937e-05
-9.4749651e-10
7.6096611e-05
-1.4113111e-09
7.609729e-05
-1.3531124e-09
7.6097854e-05
-1.0928925e-09
7.609828e-05
-8.1624091e-10
7.6098584e-05
-5.7519905e-10
7.6098791e-05
-3.9105126e-10
7.6098929e-05
-2.5746464e-10
7.6099018e-05
-1.6559325e-10
7.6099074e-05
-1.0409969e-10
7.6099108e-05
-6.4219486e-11
7.609913e-05
-3.8860273e-11
7.6099142e-05
-2.3102768e-11
7.609915e-05
-1.3476786e-11
7.6099154e-05
-7.7086761e-12
7.6099156e-05
-4.3130183e-12
7.6099157e-05
-2.3533954e-12
7.6099158e-05
-1.2473384e-12
7.6099158e-05
-6.3517057e-13
7.6099159e-05
-3.0723368e-13
7.6099159e-05
-1.3580581e-13
7.6099159e-05
-5.2693219e-14
7.6099159e-05
-1.4386385e-14
7.6099159e-05
3.957279e-16
7.6099159e-05
6.1794873e-15
7.6099159e-05
6.4357743e-15
7.6099159e-05
5.6550922e-15
7.6099159e-05
3.7542495e-15
7.6099159e-05
2.5432867e-15
7.6099159e-05
1.597002e-15
7.6099159e-05
7.0725581e-16
7.6099159e-05
3.1205684e-16
7.6099159e-05
-6.7130986e-16
7.6099159e-05
-2.5112539e-16
7.6099159e-05
-9.6157024e-16
7.6099159e-05
-3.4388718e-16
7.6099159e-05
-1.0961164e-15
7.6099159e-05
-2.6817101e-16
7.6099159e-05
-3.3699846e-16
7.6099159e-05
9.6308644e-16
7.6099159e-05
-7.6116239e-17
7.6099159e-05
1.0270792e-15
7.6099159e-05
-1.9278507e-16
7.6099159e-05
1.0466087e-15
7.6099159e-05
-3.6448604e-16
7.6099159e-05
5.1040199e-16
7.6099159e-05
-1.1656214e-15
7.6099159e-05
-2.5216897e-16
7.6099159e-05
-8.9794498e-16
7.6099159e-05
5.2758869e-16
7.6099159e-05
3.3805852e-16
7.6099159e-05
1.1650519e-15
7.6099159e-05
-1.5354358e-16
7.6099159e-05
8.2232731e-16
7.6099159e-05
5.9272772e-16
7.6099159e-05
2.0651633e-15
7.6099159e-05
1.8524248e-15
7.6099159e-05
2.6442143e-15
7.6099159e-05
1.8187473e-15
7.6099159e-05
2.1587854e-15
7.6099159e-05
1.5514966e-15
7.6099159e-05
2.0131251e-15
7.6099159e-05
1.650003e-15
7.6099159e-05
2.0202837e-15
7.6099159e-05
1.7556797e-15
7.6099159e-05
1.9783659e-15
7.6099159e-05
1.8144506e-15
7.6099159e-05
1.910306e-15
7.6099159e-05
1.8634599e-15
7.6099159e-05
1.8311286e-15
7.6099159e-05
1.8992061e-15
7.6099159e-05
1.7129956e-15
7.6099159e-05
1.8742768e-15
7.6099159e-05
1.4990923e-15
7.6099159e-05
1.7330708e-15
7.6099159e-05
1.2411492e-15
7.6099159e-05
1.6203762e-15
7.6099159e-05
9.8296995e-16
7.6099159e-05
1.3224697e-15
7.6099159e-05
6.4850524e-16
7.6099159e-05
1.3423261e-15
7.6099159e-05
9.2267274e-16
7.6099159e-05
1.6631764e-15
7.6099159e-05
7.1287513e-16
7.6099159e-05
6.0906566e-16
7.6099159e-05
-1.1508465e-15
7.6099159e-05
-1.2547365e-15
7.6099159e-05
-2.35267e-15
7.6099159e-05
-1.2015305e-15
7.6099159e-05
-1.0826158e-15
7.6099159e-05
4.4904605e-16
7.6099159e-05
3.2106079e-16
7.6099159e-05
8.3065613e-16
7.6099159e-05
-1.6187934e-16
7.6099159e-05
-2.4479445e-16
7.6099159e-05
-9.7408622e-16
7.6099159e-05
1.508605e-16
7.6099159e-05
-1.5539267e-16
7.6099159e-05
7.5221704e-16
7.6099159e-05
1.2952621e-16
7.6099159e-05
6.4612153e-16
7.6099159e-05
-5.8829516e-17
7.6099159e-05
4.2402228e-16
7.6099159e-05
-3.6031363e-17
7.6099159e-05
5.4771608e-16
7.6099159e-05
2.7799893e-16
7.6099159e-05
7.4869905e-16
7.6099159e-05
4.6047615e-16
7.6099159e-05
7.5734123e-16
7.6099159e-05
4.8336087e-16
7.6099159e-05
7.0729327e-16
7.6099159e-05
4.8589169e-16
7.6099159e-05
6.6283367e-16
7.6099159e-05
4.8022297e-16
7.6099159e-05
6.1611291e-16
7.6099159e-05
4.6581103e-16
7.6099159e-05
5.6596796e-16
7.6099159e-05
4.4203351e-16
7.6099159e-05
5.0700148e-16
7.6099159e-05
4.063296e-16
7.6099159e-05
4.3336452e-16
7.6099159e-05
3.5884487e-16
7.6099159e-05
3.5898426e-16
7.6099159e-05
3.2442e-16
7.6099159e-05
2.8599993e-16
7.6099159e-05
2.8341598e-16
7.6099159e-05
2.2398166e-16
7.6099159e-05
3.139345e-16
7.6099159e-05
2.7011027e-16
7.6099159e-05
3.5788777e-16
7.6099159e-05
1.727666e-16
7.6099159e-05
2.7571221e-16
7.6099159e-05
2.8221088e-16
7.6099159e-05
7.6412029e-16
7.6099159e-05
7.2503484e-16
7.6099159e-05
6.0645374e-16
7.6099159e-05
-5.4550692e-16
7.6099159e-05
-1.2677703e-15
7.6099159e-05
-1.9668738e-15
7.6099159e-05
-1.4450439e-15
7.6099159e-05
-8.4358524e-16
7.6099159e-05
3.7398224e-16
7.6099159e-05
7.8836183e-16
7.6099159e-05
1.44288e-15
7.6099159e-05
1.2153402e-15
7.6099159e-05
1.2025137e-15
7.6099159e-05
5.920135e-16
7.6099159e-05
6.2050677e-16
7.6099159e-05
3.5312475e-16
7.6099159e-05
5.7694619e-16
7.6099159e-05
4.2577827e-16
7.6099159e-05
6.6031845e-16
7.6099159e-05
4.8512879e-16
7.6099159e-05
6.7803113e-16
7.6099159e-05
4.7965515e-16
7.6099159e-05
6.4691226e-16
7.6099159e-05
4.4562804e-16
7.6099159e-05
6.0168128e-16
7.6099159e-05
3.9757229e-16
7.6099159e-05
5.6197724e-16
7.6099159e-05
3.8416239e-16
7.6099159e-05
5.8671718e-16
7.6099159e-05
4.5398353e-16
7.6099159e-05
6.7038825e-16
7.6099159e-05
5.5797477e-16
7.6099159e-05
7.9282656e-16
7.6099159e-05
6.9955233e-16
7.6099159e-05
8.9187554e-16
7.6099159e-05
8.037877e-16
7.6099159e-05
9.9363033e-16
7.6099159e-05
9.7427355e-16
7.6099159e-05
1.0985682e-15
7.6099159e-05
1.0544211e-15
7.6099159e-05
1.1852116e-15
7.6099159e-05
1.4165956e-15
7.6099159e-05
1.6481588e-15
7.6099159e-05
1.6807148e-15
7.6099159e-05
1.2222723e-15
7.6099159e-05
6.0349989e-16
7.6099159e-05
-2.50224e-16
7.6099159e-05
-5.0239684e-16
7.6099159e-05
-9.1449979e-16
7.6099159e-05
-7.4673651e-16
7.6099159e-05
-8.6131164e-16
7.6099159e-05
-6.1617299e-16
7.6099159e-05
-9.7890674e-16
7.6099159e-05
-1.1020114e-15
7.6099159e-05
-1.564599e-15
7.6099159e-05
-1.3177395e-15
7.6099159e-05
-9.9885888e-16
7.6099159e-05
-4.233954e-17
7.6099159e-05
4.4123262e-16
7.6099159e-05
9.5048591e-16
7.6099159e-05
8.4139532e-16
7.6099159e-05
8.5313409e-16
7.6099159e-05
5.9706103e-16
7.6099159e-05
7.2273553e-16
7.6099159e-05
6.1838427e-16
7.6099159e-05
8.5108631e-16
7.6099159e-05
7.5234373e-16
7.6099159e-05
9.6284671e-16
7.6099159e-05
8.34129e-16
7.6099159e-05
9.8824157e-16
7.6099159e-05
8.0123447e-16
7.6099159e-05
8.407624e-16
7.6099159e-05
5.7048399e-16
7.6099159e-05
5.095959e-16
7.6099159e-05
2.9406858e-16
7.6099159e-05
3.0584658e-16
7.6099159e-05
1.4719103e-16
7.6099159e-05
1.6869509e-16
7.6099159e-05
2.5951262e-16
7.6099159e-05
5.8769697e-16
7.6099159e-05
7.8694109e-16
7.6099159e-05
5.878511e-16
7.6099159e-05
2.1076761e-18
7.6099159e-05
-6.7710301e-16
7.6099159e-05
-1.2410655e-15
7.6099159e-05
-1.5241207e-15
7.6099159e-05
-1.6435443e-15
7.6099159e-05
-1.5022708e-15
7.6099159e-05
-1.0950791e-15
7.6099159e-05
-2.8680637e-16
7.6099159e-05
6.5934976e-16
7.6099159e-05
1.2153302e-15
7.6099159e-05
1.2334173e-15
7.6099159e-05
3.8626912e-16
7.6099159e-05
-5.065552e-16
7.6099159e-05
-1.4572857e-15
7.6099159e-05
-1.7392852e-15
7.6099159e-05
-1.3476226e-15
7.6099159e-05
-3.6171208e-16
7.6099159e-05
7.9756808e-16
7.6099159e-05
1.7752377e-15
7.6099159e-05
1.9718851e-15
7.6099159e-05
1.432748e-15
7.6099159e-05
2.5680906e-16
7.6099159e-05
-8.8503243e-16
7.6099159e-05
-1.4812234e-15
7.6099159e-05
-1.2642635e-15
7.6099159e-05
-4.0131402e-16
7.6099159e-05
4.7674042e-16
7.6099159e-05
1.1594507e-15
7.6099159e-05
1.3138441e-15
7.6099159e-05
1.1865139e-15
7.6099159e-05
8.3732594e-16
7.6099159e-05
6.5339276e-16
7.6099159e-05
5.0563249e-16
7.6099159e-05
5.241595e-16
7.6099159e-05
4.428503e-16
7.6099159e-05
5.3991566e-16
7.6099159e-05
6.8336853e-16
7.6099159e-05
9.7313425e-16
7.6099159e-05
9.9191099e-16
7.6099159e-05
6.5275295e-16
7.6099159e-05
-6.8677627e-17
7.6099159e-05
-8.076098e-16
7.6099159e-05
-1.291936e-15
7.6099159e-05
-1.3786536e-15
7.6099159e-05
-1.1669188e-15
7.6099159e-05
-9.109915e-16
7.6099159e-05
-7.0804707e-16
7.6099159e-05
-7.7710706e-16
7.6099159e-05
-9.7139319e-16
7.6099159e-05
-1.2466495e-15
7.6099159e-05
-1.1317897e-15
7.6099159e-05
-6.3703044e-16
7.6099159e-05
2.2814794e-16
7.6099159e-05
8.2054475e-16
7.6099159e-05
1.1971609e-15
7.6099159e-05
9.9003193e-16
7.6099159e-05
8.4916098e-16
7.6099159e-05
5.5656267e-16
7.6099159e-05
6.2390317e-16
7.6099159e-05
5.3135774e-16
7.6099159e-05
6.1018634e-16
7.6099159e-05
3.9894454e-16
7.6099159e-05
7.6238939e-16
7.6099159e-05
1.1680666e-15
7.6099159e-05
1.2796504e-15
7.6099159e-05
-4.1241817e-17
-5.8041172e-16
0.00023312986
0.00043770622
0.00018548527
0.00017459868
0.00015018421
9.6939523e-05
0.0001310242
4.974113e-05
0.00011965162
2.7696001e-05
0.0001131446
1.5916618e-05
0.00010931814
9.0865036e-06
0.00010710183
5.2976367e-06
0.00010582149
3.0015664e-06
0.00010509347
1.7127967e-06
0.00010468612
9.4306422e-07
0.00010446306
5.1624291e-07
0.00010434425
2.7031704e-07
0.00010428311
1.3819572e-07
0.00010425319
6.5914838e-08
0.00010423959
2.9234339e-08
0.0001042342
1.0751929e-08
0.00010423268
2.40389e-09
0.00010423281
-1.0817589e-09
0.00010423352
-2.1173301e-09
0.00010423431
-2.1450706e-09
0.000104235
-1.7800457e-09
0.00010423553
-1.3483821e-09
0.00010423592
-9.6045151e-10
0.00010423618
-6.5759285e-10
0.00010423636
-4.3566712e-10
0.00010423648
-2.8153803e-10
0.00010423655
-1.7780226e-10
0.0001042366
-1.1011591e-10
0.00010423662
-6.6896214e-11
0.00010423664
-3.9915509e-11
0.00010423665
-2.3375194e-11
0.00010423666
-1.3426565e-11
0.00010423666
-7.5489274e-12
0.00010423666
-4.141895e-12
0.00010423666
-2.2087422e-12
0.00010423666
-1.1345335e-12
0.00010423666
-5.5545272e-13
0.00010423666
-2.5114182e-13
0.00010423666
-1.0027772e-13
0.00010423666
-2.8699985e-14
0.00010423666
7.5769849e-16
0.00010423666
1.1882046e-14
0.00010423666
1.2988514e-14
0.00010423666
1.1456559e-14
0.00010423666
8.1971872e-15
0.00010423666
5.7146527e-15
0.00010423666
3.8186855e-15
0.00010423666
2.1270532e-15
0.00010423666
1.3576443e-15
0.00010423666
-3.8660684e-16
0.00010423666
-4.2832751e-16
0.00010423666
-1.9057709e-15
0.00010423666
-1.435286e-15
0.00010423666
-2.4330625e-15
0.00010423666
-1.2429333e-15
0.00010423666
-1.2262281e-15
0.00010423666
3.627873e-16
0.00010423666
-9.8066762e-16
0.00010423666
4.3341675e-16
0.00010423666
-1.1627067e-15
0.00010423666
3.3148596e-16
0.00010423666
-1.4847325e-15
0.00010423666
-1.7364959e-16
0.00010423666
-1.8306285e-15
0.00010423666
-2.7892493e-16
0.00010423666
-7.0854254e-16
0.00010423666
1.1493209e-15
0.00010423666
9.9745626e-16
0.00010423666
2.2608727e-15
0.00010423666
9.0108154e-16
0.00010423666
2.2037176e-15
0.00010423666
1.6839436e-15
0.00010423666
3.0445214e-15
0.00010423666
2.2064273e-15
0.00010423666
2.761404e-15
0.00010423666
1.4581421e-15
0.00010423666
1.7909383e-15
0.00010423666
8.9071488e-16
0.00010423666
1.3874795e-15
0.00010423666
8.3775177e-16
0.00010423666
1.2786927e-15
0.00010423666
8.9794167e-16
0.00010423666
1.2074905e-15
0.00010423666
9.7791764e-16
0.00010423666
1.1507209e-15
0.00010423666
1.0687634e-15
0.00010423666
1.0915021e-15
0.00010423666
1.1460817e-15
0.00010423666
9.8393531e-16
0.00010423666
1.1416104e-15
0.00010423666
7.4507266e-16
0.00010423666
1.0031526e-15
0.00010423666
4.680983e-16
0.00010423666
8.7451315e-16
0.00010423666
1.5244813e-16
0.00010423666
5.9466842e-16
0.00010423666
-9.9285138e-17
0.00010423666
7.2712244e-16
0.00010423666
8.0113923e-17
0.00010423666
7.3616407e-16
0.00010423666
-5.105831e-16
0.00010423666
-4.9916379e-16
0.00010423666
-2.0314576e-15
0.00010423666
-1.5730909e-15
0.00010423666
-2.4230696e-15
0.00010423666
-9.4285767e-16
0.00010423666
-1.035505e-15
0.00010423666
5.6954459e-16
0.00010423666
1.4061039e-16
0.00010423666
5.3989158e-16
0.00010423666
-7.2515407e-16
0.00010423666
-8.5932187e-16
0.00010423666
-1.8059236e-15
0.00010423666
-6.9990662e-16
0.00010423666
-1.1054e-15
0.00010423666
-1.9634107e-16
0.00010423666
-8.6728178e-16
0.00010423666
-2.9192464e-16
0.00010423666
-1.0112863e-15
0.00010423666
-5.1408196e-16
0.00010423666
-1.0399286e-15
0.00010423666
-4.7682099e-16
0.00010423666
-7.6402445e-16
0.00010423666
-2.6175383e-16
0.00010423666
-5.0708116e-16
0.00010423666
-1.7673813e-16
0.00010423666
-4.1138272e-16
0.00010423666
-1.8333212e-16
0.00010423666
-3.7019352e-16
0.00010423666
-2.0473482e-16
0.00010423666
-3.5003845e-16