/*--------------------------------*- C++ -*----------------------------------*\
| =========                 |                                                 |
| \\      /  F ield         | OpenFOAM: The Open Source CFD Toolbox           |
|  \\    /   O peration     | Version:  2206                                  |
|   \\  /    A nd           | Website:  www.openfoam.com                      |
|    \\/     M anipulation  |                                                 |
\*---------------------------------------------------------------------------*/
FoamFile
{
    version     2.0;
    format      ascii;
    arch        "LSB;label=32;scalar=64";
    class       volVectorField;
    location    "9";
    object      U;
}
// * * * * * * * * * * * * * * * * * * * * * * * * * * * * * * * * * * * * * //

dimensions      [0 1 -1 0 0 0 0];

internalField   nonuniform List<vector> 
15000
(
(0.15962853 0.053997676 0)
(0.11557193 0.0064916384 0)
(0.064251361 0.0014144181 0)
(0.055918599 0.00074959918 0)
(0.047595817 0.00028826834 0)
(0.044708799 0.00019884451 0)
(0.042412495 9.0524849e-05 0)
(0.041406637 6.0131824e-05 0)
(0.040707475 2.8983401e-05 0)
(0.040376989 1.8022788e-05 0)
(0.040167797 8.6637412e-06 0)
(0.04006866 4.9960221e-06 0)
(0.040011054 2.2670559e-06 0)
(0.039985308 1.1730072e-06 0)
(0.039971973 4.4597234e-07 0)
(0.039967049 1.7339621e-07 0)
(0.03996518 1.3806057e-08 0)
(0.039965128 -3.0340222e-08 0)
(0.039965544 -4.8732277e-08 0)
(0.039966152 -4.3252666e-08 0)
(0.03996668 -3.5719036e-08 0)
(0.039967111 -2.5990137e-08 0)
(0.039967422 -1.8486421e-08 0)
(0.039967642 -1.2411078e-08 0)
(0.03996779 -8.2153515e-09 0)
(0.039967887 -5.2520192e-09 0)
(0.039967949 -3.3144994e-09 0)
(0.039967988 -2.0379374e-09 0)
(0.039968012 -1.2363445e-09 0)
(0.039968026 -7.3406389e-10 0)
(0.039968035 -4.2959086e-10 0)
(0.039968039 -2.4596278e-10 0)
(0.039968042 -1.3772026e-10 0)
(0.039968044 -7.5011889e-11 0)
(0.039968045 -3.9717341e-11 0)
(0.039968045 -2.0471927e-11 0)
(0.039968045 -9.9259055e-12 0)
(0.039968046 -4.4719004e-12 0)
(0.039968046 -1.6204642e-12 0)
(0.039968046 -5.7943716e-13 0)
(0.039968046 -2.76826e-13 0)
(0.039968046 -3.2461303e-13 0)
(0.039968046 -2.2435108e-13 0)
(0.039968046 -2.5190366e-13 0)
(0.039968046 -2.048136e-13 0)
(0.039968046 -2.2968521e-13 0)
(0.039968046 -1.7930022e-13 0)
(0.039968046 -1.4160792e-13 0)
(0.039968046 -1.2971329e-13 0)
(0.039968046 -8.7390285e-14 0)
(0.039968046 -1.0493109e-13 0)
(0.039968046 3.123602e-14 0)
(0.039968046 2.6077872e-14 0)
(0.039968046 1.1788375e-13 0)
(0.039968046 3.4145752e-14 0)
(0.039968046 8.8393533e-14 0)
(0.039968046 6.2174421e-14 0)
(0.039968046 2.0076233e-13 0)
(0.039968046 8.6903016e-14 0)
(0.039968046 2.249963e-13 0)
(0.039968046 1.0747757e-13 0)
(0.039968046 2.646522e-13 0)
(0.039968046 1.277003e-13 0)
(0.039968046 2.0847336e-13 0)
(0.039968046 -4.5370997e-14 0)
(0.039968046 -9.8061729e-15 0)
(0.039968046 -1.5192441e-13 0)
(0.039968046 -3.3904843e-14 0)
(0.039968046 -7.418253e-14 0)
(0.039968046 -1.1605008e-14 0)
(0.039968046 -2.0253398e-13 0)
(0.039968046 -9.8596526e-14 0)
(0.039968046 -1.169452e-13 0)
(0.039968046 9.0413293e-14 0)
(0.039968046 1.2544464e-13 0)
(0.039968046 2.8843055e-13 0)
(0.039968046 2.3520951e-13 0)
(0.039968046 3.0887247e-13 0)
(0.039968046 2.6042757e-13 0)
(0.039968046 3.3776813e-13 0)
(0.039968046 3.0011541e-13 0)
(0.039968046 3.5598395e-13 0)
(0.039968046 3.1927885e-13 0)
(0.039968046 3.5521039e-13 0)
(0.039968046 3.2500307e-13 0)
(0.039968046 3.4742158e-13 0)
(0.039968046 3.2922034e-13 0)
(0.039968046 3.3802193e-13 0)
(0.039968046 3.3136095e-13 0)
(0.039968046 3.2291696e-13 0)
(0.039968046 3.2726672e-13 0)
(0.039968046 2.985455e-13 0)
(0.039968046 3.0973262e-13 0)
(0.039968046 2.6519292e-13 0)
(0.039968046 3.0042017e-13 0)
(0.039968046 2.4220239e-13 0)
(0.039968046 2.6741657e-13 0)
(0.039968046 1.9495591e-13 0)
(0.039968046 2.5457912e-13 0)
(0.039968046 2.2970521e-13 0)
(0.039968046 3.2760237e-13 0)
(0.039968046 2.5826597e-13 0)
(0.039968046 2.3583694e-13 0)
(0.039968046 -2.2552092e-14 0)
(0.039968046 -1.1430419e-13 0)
(0.039968046 -2.6828895e-13 0)
(0.039968046 -1.7624457e-13 0)
(0.039968046 -1.5127989e-13 0)
(0.039968046 1.988599e-14 0)
(0.039968046 5.9654852e-14 0)
(0.039968046 1.4622914e-13 0)
(0.039968046 7.7817816e-14 0)
(0.039968046 9.5910889e-14 0)
(0.039968046 4.5540428e-14 0)
(0.039968046 1.6996264e-13 0)
(0.039968046 1.3804825e-13 0)
(0.039968046 2.3919945e-13 0)
(0.039968046 1.6301389e-13 0)
(0.039968046 2.1898249e-13 0)
(0.039968046 1.3151152e-13 0)
(0.039968046 1.9511445e-13 0)
(0.039968046 1.432459e-13 0)
(0.039968046 2.1984282e-13 0)
(0.039968046 1.8418604e-13 0)
(0.039968046 2.372646e-13 0)
(0.039968046 1.9437178e-13 0)
(0.039968046 2.2709585e-13 0)
(0.039968046 1.880884e-13 0)
(0.039968046 2.1665591e-13 0)
(0.039968046 1.8492275e-13 0)
(0.039968046 2.0946113e-13 0)
(0.039968046 1.8193017e-13 0)
(0.039968046 2.031836e-13 0)
(0.039968046 1.7876839e-13 0)
(0.039968046 1.9726695e-13 0)
(0.039968046 1.7506456e-13 0)
(0.039968046 1.9053955e-13 0)
(0.039968046 1.6980851e-13 0)
(0.039968046 1.8159468e-13 0)
(0.039968046 1.6305816e-13 0)
(0.039968046 1.7216554e-13 0)
(0.039968046 1.5823714e-13 0)
(0.039968046 1.6340171e-13 0)
(0.039968046 1.5346417e-13 0)
(0.039968046 1.5317206e-13 0)
(0.039968046 1.5521283e-13 0)
(0.039968046 1.6039534e-13 0)
(0.039968046 1.6589676e-13 0)
(0.039968046 1.4973737e-13 0)
(0.039968046 1.4718869e-13 0)
(0.039968046 1.4506191e-13 0)
(0.039968046 2.0178038e-13 0)
(0.039968046 2.3123768e-13 0)
(0.039968046 2.3552335e-13 0)
(0.039968046 9.4898761e-14 0)
(0.039968046 -6.687793e-14 0)
(0.039968046 -2.2603693e-13 0)
(0.039968046 -2.3697064e-13 0)
(0.039968046 -1.9305365e-13 0)
(0.039968046 -1.6820855e-14 0)
(0.039968046 7.6837673e-14 0)
(0.039968046 1.9401805e-13 0)
(0.039968046 2.0153642e-13 0)
(0.039968046 2.1298911e-13 0)
(0.039968046 1.6081006e-13 0)
(0.039968046 1.7862014e-13 0)
(0.039968046 1.612267e-13 0)
(0.039968046 1.9446624e-13 0)
(0.039968046 1.8063345e-13 0)
(0.039968046 2.0690727e-13 0)
(0.039968046 1.8583219e-13 0)
(0.039968046 2.0578467e-13 0)
(0.039968046 1.817691e-13 0)
(0.039968046 1.9984557e-13 0)
(0.039968046 1.76224e-13 0)
(0.039968046 1.9382793e-13 0)
(0.039968046 1.6968513e-13 0)
(0.039968046 1.8815058e-13 0)
(0.039968046 1.6603108e-13 0)
(0.039968046 1.9053798e-13 0)
(0.039968046 1.7325879e-13 0)
(0.039968046 2.0039229e-13 0)
(0.039968046 1.8374448e-13 0)
(0.039968046 2.1422073e-13 0)
(0.039968046 2.021916e-13 0)
(0.039968046 2.2877664e-13 0)
(0.039968046 2.1475119e-13 0)
(0.039968046 2.3911747e-13 0)
(0.039968046 2.3358392e-13 0)
(0.039968046 2.5205183e-13 0)
(0.039968046 2.4110736e-13 0)
(0.039968046 2.5499516e-13 0)
(0.039968046 2.7995265e-13 0)
(0.039968046 3.2669808e-13 0)
(0.039968046 3.5503215e-13 0)
(0.039968046 3.2159889e-13 0)
(0.039968046 2.13782e-13 0)
(0.039968046 4.7440408e-14 0)
(0.039968046 -3.8868938e-14 0)
(0.039968046 -1.2665954e-13 0)
(0.039968046 -1.3946959e-13 0)
(0.039968046 -1.6382994e-13 0)
(0.039968046 -1.4857474e-13 0)
(0.039968046 -1.9644512e-13 0)
(0.039968046 -2.2524534e-13 0)
(0.039968046 -2.9932137e-13 0)
(0.039968046 -2.9777855e-13 0)
(0.039968046 -2.6822497e-13 0)
(0.039968046 -1.1306112e-13 0)
(0.039968046 1.1896639e-14 0)
(0.039968046 1.1623458e-13 0)
(0.039968046 1.4942293e-13 0)
(0.039968046 1.7642782e-13 0)
(0.039968046 1.6653459e-13 0)
(0.039968046 1.9529188e-13 0)
(0.039968046 1.9359367e-13 0)
(0.039968046 2.2161877e-13 0)
(0.039968046 2.1072084e-13 0)
(0.039968046 2.3060638e-13 0)
(0.039968046 2.1593091e-13 0)
(0.039968046 2.297849e-13 0)
(0.039968046 2.0932794e-13 0)
(0.039968046 2.1107381e-13 0)
(0.039968046 1.810336e-13 0)
(0.039968046 1.7299742e-13 0)
(0.039968046 1.5266461e-13 0)
(0.039968046 1.5828423e-13 0)
(0.039968046 1.4342268e-13 0)
(0.039968046 1.4139418e-13 0)
(0.039968046 1.5013069e-13 0)
(0.039968046 1.9591001e-13 0)
(0.039968046 2.4167892e-13 0)
(0.039968046 2.4079431e-13 0)
(0.039968046 1.7004742e-13 0)
(0.039968046 6.1398938e-14 0)
(0.039968046 -7.3207528e-14 0)
(0.039968046 -1.658499e-13 0)
(0.039968046 -2.3284351e-13 0)
(0.039968046 -2.6584839e-13 0)
(0.039968046 -2.6105696e-13 0)
(0.039968046 -1.8178108e-13 0)
(0.039968046 -1.5463167e-14 0)
(0.039968046 1.2564716e-13 0)
(0.039968046 2.0080875e-13 0)
(0.039968046 1.5136998e-13 0)
(0.039968046 4.6888135e-14 0)
(0.039968046 -1.2555808e-13 0)
(0.039968046 -2.2543807e-13 0)
(0.039968046 -2.3946874e-13 0)
(0.039968046 -1.5001624e-13 0)
(0.039968046 8.2793698e-15 0)
(0.039968046 1.8093053e-13 0)
(0.039968046 2.7638439e-13 0)
(0.039968046 2.6142876e-13 0)
(0.039968046 1.4096813e-13 0)
(0.039968046 -5.1291503e-14 0)
(0.039968046 -1.84094e-13 0)
(0.039968046 -2.1550441e-13 0)
(0.039968046 -1.3682548e-13 0)
(0.039968046 -1.0337348e-14 0)
(0.039968046 1.1511916e-13 0)
(0.039968046 1.7762492e-13 0)
(0.039968046 1.9698266e-13 0)
(0.039968046 1.741527e-13 0)
(0.039968046 1.7245959e-13 0)
(0.039968046 1.723851e-13 0)
(0.039968046 1.8962913e-13 0)
(0.039968046 1.8430141e-13 0)
(0.039968046 1.9066773e-13 0)
(0.039968046 2.0285817e-13 0)
(0.039968046 2.4435212e-13 0)
(0.039968046 2.6680785e-13 0)
(0.039968046 2.4811297e-13 0)
(0.039968046 1.5152823e-13 0)
(0.039968046 1.309074e-14 0)
(0.039968046 -1.1059345e-13 0)
(0.039968046 -1.7834734e-13 0)
(0.039968046 -1.9305028e-13 0)
(0.039968046 -1.8979696e-13 0)
(0.039968046 -1.8367837e-13 0)
(0.039968046 -1.9988985e-13 0)
(0.039968046 -2.3468469e-13 0)
(0.039968046 -2.8818391e-13 0)
(0.039968046 -3.0134687e-13 0)
(0.039968046 -2.5267729e-13 0)
(0.039968046 -1.1250155e-13 0)
(0.039968046 3.4371887e-14 0)
(0.039968046 1.3316304e-13 0)
(0.039968046 1.6103232e-13 0)
(0.039968046 1.6869202e-13 0)
(0.039968046 1.5766715e-13 0)
(0.039968046 1.8016608e-13 0)
(0.039968046 1.8586893e-13 0)
(0.039968046 2.0198694e-13 0)
(0.039968046 1.6993386e-13 0)
(0.039968046 1.964182e-13 0)
(0.039968046 2.5817301e-13 0)
(0.039968046 3.0946177e-13 0)
(0.039968046 1.5144612e-13 0)
(0.039968046 -1.7577666e-14 0)
(0.36732383 0.14062829 0)
(0.29754389 0.025079377 0)
(0.1860793 0.0083694592 0)
(0.16132807 0.0041218745 0)
(0.13901859 0.0019375812 0)
(0.13040448 0.0011770265 0)
(0.12396461 0.000611134 0)
(0.12095998 0.00037192702 0)
(0.1189454 0.00019727462 0)
(0.11794826 0.00011564875 0)
(0.11733081 6.0265063e-05 0)
(0.11702581 3.34181e-05 0)
(0.11685066 1.651202e-05 0)
(0.11676842 8.3919499e-06 0)
(0.1167257 3.6620634e-06 0)
(0.11670834 1.5196641e-06 0)
(0.1167012 3.9852626e-07 0)
(0.11669986 -2.8693497e-08 0)
(0.1167004 -1.993786e-07 0)
(0.11670175 -2.1604541e-07 0)
(0.11670304 -1.9033509e-07 0)
(0.11670415 -1.4595361e-07 0)
(0.11670497 -1.0627713e-07 0)
(0.11670557 -7.3207782e-08 0)
(0.11670597 -4.9102993e-08 0)
(0.11670624 -3.188944e-08 0)
(0.11670642 -2.0318451e-08 0)
(0.11670653 -1.2643552e-08 0)
(0.11670659 -7.7370283e-09 0)
(0.11670664 -4.6405823e-09 0)
(0.11670666 -2.7377925e-09 0)
(0.11670667 -1.5835266e-09 0)
(0.11670668 -8.9756049e-10 0)
(0.11670669 -4.9670679e-10 0)
(0.11670669 -2.6760335e-10 0)
(0.11670669 -1.3994214e-10 0)
(0.11670669 -6.9891954e-11 0)
(0.11670669 -3.2953819e-11 0)
(0.11670669 -1.3754388e-11 0)
(0.11670669 -5.0982042e-12 0)
(0.11670669 -1.4266505e-12 0)
(0.11670669 -3.3909353e-13 0)
(0.11670669 2.4476444e-13 0)
(0.11670669 1.7002587e-13 0)
(0.11670669 1.673936e-13 0)
(0.11670669 -5.7319723e-14 0)
(0.11670669 -8.5910331e-14 0)
(0.11670669 -9.9055576e-14 0)
(0.11670669 -1.7504104e-13 0)
(0.11670669 -1.3748467e-13 0)
(0.11670669 -3.343214e-13 0)
(0.11670669 -8.494025e-14 0)
(0.11670669 -2.1298387e-13 0)
(0.11670669 4.4281529e-15 0)
(0.11670669 -2.1310132e-13 0)
(0.11670669 8.9644893e-15 0)
(0.11670669 -8.9239383e-15 0)
(0.11670669 3.9437454e-13 0)
(0.11670669 6.3298661e-14 0)
(0.11670669 4.3433147e-13 0)
(0.11670669 6.8424104e-14 0)
(0.11670669 4.7706913e-13 0)
(0.11670669 4.6738994e-14 0)
(0.11670669 2.9014105e-13 0)
(0.11670669 -2.8334088e-13 0)
(0.11670669 -8.8776359e-14 0)
(0.11670669 -3.4240035e-13 0)
(0.11670669 6.6933306e-14 0)
(0.11670669 3.9559807e-15 0)
(0.11670669 2.2350489e-13 0)
(0.11670669 -2.5387797e-13 0)
(0.11670669 4.2990347e-14 0)
(0.11670669 -1.0574934e-14 0)
(0.11670669 4.9329106e-13 0)
(0.11670669 4.8460579e-13 0)
(0.11670669 8.5005543e-13 0)
(0.11670669 5.9625281e-13 0)
(0.11670669 7.3918123e-13 0)
(0.11670669 5.4749644e-13 0)
(0.11670669 7.2933758e-13 0)
(0.11670669 6.0762458e-13 0)
(0.11670669 7.551654e-13 0)
(0.11670669 6.5140658e-13 0)
(0.11670669 7.5012798e-13 0)
(0.11670669 6.6979767e-13 0)
(0.11670669 7.3064957e-13 0)
(0.11670669 6.8279431e-13 0)
(0.11670669 7.0505348e-13 0)
(0.11670669 6.9088228e-13 0)
(0.11670669 6.6706616e-13 0)
(0.11670669 6.8239602e-13 0)
(0.11670669 6.0086382e-13 0)
(0.11670669 6.3717556e-13 0)
(0.11670669 5.197954e-13 0)
(0.11670669 6.1050575e-13 0)
(0.11670669 4.4878506e-13 0)
(0.11670669 5.1357041e-13 0)
(0.11670669 3.3562144e-13 0)
(0.11670669 5.2181941e-13 0)
(0.11670669 4.4105229e-13 0)
(0.11670669 6.6792127e-13 0)
(0.11670669 4.302991e-13 0)
(0.11670669 3.3820045e-13 0)
(0.11670669 -2.4062537e-13 0)
(0.11670669 -3.7420914e-13 0)
(0.11670669 -7.4270484e-13 0)
(0.11670669 -4.1837401e-13 0)
(0.11670669 -3.3680404e-13 0)
(0.11670669 1.3345906e-13 0)
(0.11670669 1.6486462e-13 0)
(0.11670669 3.2770113e-13 0)
(0.11670669 5.7973881e-14 0)
(0.11670669 3.2971925e-14 0)
(0.11670669 -1.3476633e-13 0)
(0.11670669 2.0094271e-13 0)
(0.11670669 1.3836343e-13 0)
(0.11670669 3.9252616e-13 0)
(0.11670669 2.1570777e-13 0)
(0.11670669 3.511807e-13 0)
(0.11670669 1.3967084e-13 0)
(0.11670669 2.7825861e-13 0)
(0.11670669 1.4706899e-13 0)
(0.11670669 3.2332159e-13 0)
(0.11670669 2.4648163e-13 0)
(0.11670669 3.8093196e-13 0)
(0.11670669 2.916255e-13 0)
(0.11670669 3.7171324e-13 0)
(0.11670669 2.8697753e-13 0)
(0.11670669 3.5003479e-13 0)
(0.11670669 2.8192698e-13 0)
(0.11670669 3.3381315e-13 0)
(0.11670669 2.7661822e-13 0)
(0.11670669 3.1866712e-13 0)
(0.11670669 2.6968448e-13 0)
(0.11670669 3.0352201e-13 0)
(0.11670669 2.6121255e-13 0)
(0.11670669 2.864556e-13 0)
(0.11670669 2.493028e-13 0)
(0.11670669 2.6420319e-13 0)
(0.11670669 2.3364352e-13 0)
(0.11670669 2.4153464e-13 0)
(0.11670669 2.2273447e-13 0)
(0.11670669 2.195445e-13 0)
(0.11670669 2.0957203e-13 0)
(0.11670669 1.9791881e-13 0)
(0.11670669 2.1882478e-13 0)
(0.11670669 2.1687824e-13 0)
(0.11670669 2.3870445e-13 0)
(0.11670669 1.8469885e-13 0)
(0.11670669 1.9733397e-13 0)
(0.11670669 2.0390122e-13 0)
(0.11670669 3.626391e-13 0)
(0.11670669 3.8522641e-13 0)
(0.11670669 3.6405285e-13 0)
(0.11670669 -2.7558452e-14 0)
(0.11670669 -3.5095399e-13 0)
(0.11670669 -6.4899209e-13 0)
(0.11670669 -5.5786652e-13 0)
(0.11670669 -3.4326787e-13 0)
(0.11670669 8.393437e-14 0)
(0.11670669 2.6071424e-13 0)
(0.11670669 5.16293e-13 0)
(0.11670669 4.7222429e-13 0)
(0.11670669 4.6788434e-13 0)
(0.11670669 2.8226953e-13 0)
(0.11670669 2.9865888e-13 0)
(0.11670669 2.3072927e-13 0)
(0.11670669 3.0570754e-13 0)
(0.11670669 2.6639594e-13 0)
(0.11670669 3.3810419e-13 0)
(0.11670669 2.8491239e-13 0)
(0.11670669 3.4157161e-13 0)
(0.11670669 2.8016256e-13 0)
(0.11670669 3.2940254e-13 0)
(0.11670669 2.6792055e-13 0)
(0.11670669 3.1425e-13 0)
(0.11670669 2.5120742e-13 0)
(0.11670669 2.9994738e-13 0)
(0.11670669 2.4439835e-13 0)
(0.11670669 3.0775648e-13 0)
(0.11670669 2.6530286e-13 0)
(0.11670669 3.3460274e-13 0)
(0.11670669 2.9565609e-13 0)
(0.11670669 3.7383567e-13 0)
(0.11670669 3.4191768e-13 0)
(0.11670669 4.0685843e-13 0)
(0.11670669 3.7265041e-13 0)
(0.11670669 4.3510313e-13 0)
(0.11670669 4.245871e-13 0)
(0.11670669 4.6826317e-13 0)
(0.11670669 4.4515828e-13 0)
(0.11670669 4.8927067e-13 0)
(0.11670669 5.6658659e-13 0)
(0.11670669 6.6901409e-13 0)
(0.11670669 6.9620663e-13 0)
(0.11670669 5.6962086e-13 0)
(0.11670669 3.1509815e-13 0)
(0.11670669 -2.6834539e-14 0)
(0.11670669 -1.5468394e-13 0)
(0.11670669 -3.2406096e-13 0)
(0.11670669 -2.9684741e-13 0)
(0.11670669 -3.3387099e-13 0)
(0.11670669 -2.6531025e-13 0)
(0.11670669 -3.8137385e-13 0)
(0.11670669 -4.479976e-13 0)
(0.11670669 -6.141336e-13 0)
(0.11670669 -5.6554194e-13 0)
(0.11670669 -4.5574225e-13 0)
(0.11670669 -1.0539257e-13 0)
(0.11670669 1.3448636e-13 0)
(0.11670669 3.2034217e-13 0)
(0.11670669 3.4632286e-13 0)
(0.11670669 3.6153822e-13 0)
(0.11670669 2.9304329e-13 0)
(0.11670669 3.4061661e-13 0)
(0.11670669 3.1675695e-13 0)
(0.11670669 3.9043334e-13 0)
(0.11670669 3.5938302e-13 0)
(0.11670669 4.2130076e-13 0)
(0.11670669 3.8083887e-13 0)
(0.11670669 4.2610277e-13 0)
(0.11670669 3.6877996e-13 0)
(0.11670669 3.7915911e-13 0)
(0.11670669 2.9702549e-13 0)
(0.11670669 2.738351e-13 0)
(0.11670669 2.1467038e-13 0)
(0.11670669 2.1756977e-13 0)
(0.11670669 1.7501788e-13 0)
(0.11670669 1.7413908e-13 0)
(0.11670669 2.0679208e-13 0)
(0.11670669 3.2424114e-13 0)
(0.11670669 4.1934774e-13 0)
(0.11670669 3.6403358e-13 0)
(0.11670669 1.7751591e-13 0)
(0.11670669 -9.031019e-14 0)
(0.11670669 -3.3687908e-13 0)
(0.11670669 -4.856983e-13 0)
(0.11670669 -5.9382281e-13 0)
(0.11670669 -5.8000879e-13 0)
(0.11670669 -4.8906956e-13 0)
(0.11670669 -2.1998606e-13 0)
(0.11670669 1.5000443e-13 0)
(0.11670669 3.8880896e-13 0)
(0.11670669 4.927027e-13 0)
(0.11670669 2.293805e-13 0)
(0.11670669 -6.5879283e-14 0)
(0.11670669 -4.3401662e-13 0)
(0.11670669 -6.0743695e-13 0)
(0.11670669 -5.3019618e-13 0)
(0.11670669 -2.2794922e-13 0)
(0.11670669 1.9067224e-13 0)
(0.11670669 5.3457689e-13 0)
(0.11670669 7.1072914e-13 0)
(0.11670669 5.6849225e-13 0)
(0.11670669 1.7861093e-13 0)
(0.11670669 -2.6063398e-13 0)
(0.11670669 -4.9643726e-13 0)
(0.11670669 -4.9770122e-13 0)
(0.11670669 -2.1405486e-13 0)
(0.11670669 1.0644563e-13 0)
(0.11670669 3.6372231e-13 0)
(0.11670669 4.6760767e-13 0)
(0.11670669 4.5996619e-13 0)
(0.11670669 3.5443828e-13 0)
(0.11670669 3.0724434e-13 0)
(0.11670669 2.7399018e-13 0)
(0.11670669 2.938213e-13 0)
(0.11670669 2.68031e-13 0)
(0.11670669 2.9627093e-13 0)
(0.11670669 3.4016803e-13 0)
(0.11670669 4.4999404e-13 0)
(0.11670669 4.7682047e-13 0)
(0.11670669 3.8144721e-13 0)
(0.11670669 1.3490621e-13 0)
(0.11670669 -1.6858154e-13 0)
(0.11670669 -3.8214824e-13 0)
(0.11670669 -4.7861609e-13 0)
(0.11670669 -4.4270991e-13 0)
(0.11670669 -3.7146732e-13 0)
(0.11670669 -3.2140126e-13 0)
(0.11670669 -3.5140731e-13 0)
(0.11670669 -4.317214e-13 0)
(0.11670669 -5.4439972e-13 0)
(0.11670669 -5.3773725e-13 0)
(0.11670669 -3.7061057e-13 0)
(0.11670669 -5.6758652e-14 0)
(0.11670669 2.2603247e-13 0)
(0.11670669 3.7879455e-13 0)
(0.11670669 3.7680286e-13 0)
(0.11670669 3.4546032e-13 0)
(0.11670669 2.6789921e-13 0)
(0.11670669 3.0165964e-13 0)
(0.11670669 2.9012091e-13 0)
(0.11670669 3.1683006e-13 0)
(0.11670669 2.4128563e-13 0)
(0.11670669 3.4474333e-13 0)
(0.11670669 5.1008005e-13 0)
(0.11670669 5.7717413e-13 0)
(0.11670669 1.129779e-13 0)
(0.11670669 -1.6546841e-13 0)
(0.50390834 0.19019021 0)
(0.43847039 0.050431495 0)
(0.29767008 0.022055309 0)
(0.25944374 0.010780098 0)
(0.22598939 0.0055621405 0)
(0.21213187 0.003230803 0)
(0.20205719 0.0017732977 0)
(0.19716897 0.0010457489 0)
(0.19394744 0.00057680564 0)
(0.19230772 0.00033134264 0)
(0.19130242 0.00017833445 0)
(0.19079327 9.7728415e-05 0)
(0.19050201 4.9922222e-05 0)
(0.1903612 2.5324514e-05 0)
(0.19028763 1.1617692e-05 0)
(0.19025609 4.9667758e-06 0)
(0.1902425 1.5948279e-06 0)
(0.19023894 1.7245042e-07 0)
(0.19023899 -4.0037827e-07 0)
(0.19024063 -5.2275167e-07 0)
(0.19024241 -4.8497798e-07 0)
(0.19024402 -3.847393e-07 0)
(0.19024524 -2.8468745e-07 0)
(0.19024615 -1.9910816e-07 0)
(0.19024677 -1.3471539e-07 0)
(0.19024719 -8.8299349e-08 0)
(0.19024746 -5.6605801e-08 0)
(0.19024763 -3.5467292e-08 0)
(0.19024774 -2.1819683e-08 0)
(0.1902478 -1.3165649e-08 0)
(0.19024784 -7.8070764e-09 0)
(0.19024787 -4.5416347e-09 0)
(0.19024788 -2.5900622e-09 0)
(0.19024789 -1.4439971e-09 0)
(0.19024789 -7.8468952e-10 0)
(0.19024789 -4.1405874e-10 0)
(0.1902479 -2.0959857e-10 0)
(0.1902479 -1.0052866e-10 0)
(0.1902479 -4.3663341e-11 0)
(0.1902479 -1.6623015e-11 0)
(0.1902479 -4.4932439e-12 0)
(0.1902479 -7.4378423e-14 0)
(0.1902479 1.7142343e-12 0)
(0.1902479 1.7333305e-12 0)
(0.1902479 1.5398424e-12 0)
(0.1902479 9.2441265e-13 0)
(0.1902479 6.0108712e-13 0)
(0.1902479 3.6871516e-13 0)
(0.1902479 8.1642057e-14 0)
(0.1902479 1.1877667e-14 0)
(0.1902479 -3.7107888e-13 0)
(0.1902479 -5.6605634e-14 0)
(0.1902479 -2.9552444e-13 0)
(0.1902479 2.13994e-14 0)
(0.1902479 -3.2919693e-13 0)
(0.1902479 1.3537064e-15 0)
(0.1902479 -4.8811417e-14 0)
(0.1902479 5.6731601e-13 0)
(0.1902479 9.6894878e-14 0)
(0.1902479 6.4164081e-13 0)
(0.1902479 8.7693102e-14 0)
(0.1902479 6.8298465e-13 0)
(0.1902479 2.8484449e-14 0)
(0.1902479 3.9248939e-13 0)
(0.1902479 -4.4947389e-13 0)
(0.1902479 -1.3638512e-13 0)
(0.1902479 -4.984854e-13 0)
(0.1902479 1.1806015e-13 0)
(0.1902479 1.2902392e-14 0)
(0.1902479 3.6123379e-13 0)
(0.1902479 -3.0786062e-13 0)
(0.1902479 1.524643e-13 0)
(0.1902479 8.9514677e-14 0)
(0.1902479 8.3712537e-13 0)
(0.1902479 8.1948089e-13 0)
(0.1902479 1.3042842e-12 0)
(0.1902479 9.2453193e-13 0)
(0.1902479 1.1043623e-12 0)
(0.1902479 8.1462944e-13 0)
(0.1902479 1.0604885e-12 0)
(0.1902479 8.8638229e-13 0)
(0.1902479 1.0870607e-12 0)
(0.1902479 9.4704067e-13 0)
(0.1902479 1.0750979e-12 0)
(0.1902479 9.7304745e-13 0)
(0.1902479 1.0434934e-12 0)
(0.1902479 9.9145144e-13 0)
(0.1902479 1.0053904e-12 0)
(0.1902479 1.0042742e-12 0)
(0.1902479 9.4980011e-13 0)
(0.1902479 9.915964e-13 0)
(0.1902479 8.5143048e-13 0)
(0.1902479 9.2216654e-13 0)
(0.1902479 7.3156999e-13 0)
(0.1902479 8.787252e-13 0)
(0.1902479 6.2064246e-13 0)
(0.1902479 7.268882e-13 0)
(0.1902479 4.463549e-13 0)
(0.1902479 7.3763801e-13 0)
(0.1902479 6.1118331e-13 0)
(0.1902479 9.5422481e-13 0)
(0.1902479 5.7505666e-13 0)
(0.1902479 4.3451767e-13 0)
(0.1902479 -4.2772379e-13 0)
(0.1902479 -6.1073153e-13 0)
(0.1902479 -1.1728493e-12 0)
(0.1902479 -6.7820161e-13 0)
(0.1902479 -5.4857357e-13 0)
(0.1902479 1.7830203e-13 0)
(0.1902479 1.9360879e-13 0)
(0.1902479 4.4598089e-13 0)
(0.1902479 2.2982446e-14 0)
(0.1902479 -1.9652464e-14 0)
(0.1902479 -2.9438776e-13 0)
(0.1902479 1.9566032e-13 0)
(0.1902479 1.2053335e-13 0)
(0.1902479 5.010921e-13 0)
(0.1902479 2.5152351e-13 0)
(0.1902479 4.4530462e-13 0)
(0.1902479 1.4111366e-13 0)
(0.1902479 3.3478079e-13 0)
(0.1902479 1.5478355e-13 0)
(0.1902479 4.1164887e-13 0)
(0.1902479 3.1734705e-13 0)
(0.1902479 5.1503076e-13 0)
(0.1902479 3.9791285e-13 0)
(0.1902479 5.1097219e-13 0)
(0.1902479 3.9600902e-13 0)
(0.1902479 4.8116901e-13 0)
(0.1902479 3.9013704e-13 0)
(0.1902479 4.5722867e-13 0)
(0.1902479 3.8241542e-13 0)
(0.1902479 4.3361942e-13 0)
(0.1902479 3.7253902e-13 0)
(0.1902479 4.1031194e-13 0)
(0.1902479 3.6014537e-13 0)
(0.1902479 3.8384027e-13 0)
(0.1902479 3.4280475e-13 0)
(0.1902479 3.5031365e-13 0)
(0.1902479 3.1977606e-13 0)
(0.1902479 3.166245e-13 0)
(0.1902479 3.0418199e-13 0)
(0.1902479 2.8413744e-13 0)
(0.1902479 2.8411991e-13 0)
(0.1902479 2.5308436e-13 0)
(0.1902479 2.9874521e-13 0)
(0.1902479 2.8388251e-13 0)
(0.1902479 3.2778054e-13 0)
(0.1902479 2.3557135e-13 0)
(0.1902479 2.6838162e-13 0)
(0.1902479 2.738884e-13 0)
(0.1902479 5.2242003e-13 0)
(0.1902479 5.4619338e-13 0)
(0.1902479 5.0243741e-13 0)
(0.1902479 -9.937838e-14 0)
(0.1902479 -5.4478938e-13 0)
(0.1902479 -9.8295011e-13 0)
(0.1902479 -8.1354046e-13 0)
(0.1902479 -4.7951965e-13 0)
(0.1902479 1.494782e-13 0)
(0.1902479 4.0717563e-13 0)
(0.1902479 7.7246115e-13 0)
(0.1902479 6.9535288e-13 0)
(0.1902479 6.7739617e-13 0)
(0.1902479 3.9395916e-13 0)
(0.1902479 4.0871409e-13 0)
(0.1902479 3.0024367e-13 0)
(0.1902479 4.1064241e-13 0)
(0.1902479 3.5157663e-13 0)
(0.1902479 4.5964795e-13 0)
(0.1902479 3.8238661e-13 0)
(0.1902479 4.6685141e-13 0)
(0.1902479 3.7681322e-13 0)
(0.1902479 4.4932243e-13 0)
(0.1902479 3.5901965e-13 0)
(0.1902479 4.2702337e-13 0)
(0.1902479 3.3568713e-13 0)
(0.1902479 4.0701111e-13 0)
(0.1902479 3.282329e-13 0)
(0.1902479 4.1914696e-13 0)
(0.1902479 3.5983951e-13 0)
(0.1902479 4.5742346e-13 0)
(0.1902479 4.0430253e-13 0)
(0.1902479 5.1359826e-13 0)
(0.1902479 4.7117744e-13 0)
(0.1902479 5.5970751e-13 0)
(0.1902479 5.1557722e-13 0)
(0.1902479 6.0264897e-13 0)
(0.1902479 5.9412814e-13 0)
(0.1902479 6.5247473e-13 0)
(0.1902479 6.2384494e-13 0)
(0.1902479 6.8388469e-13 0)
(0.1902479 8.0609625e-13 0)
(0.1902479 9.4812285e-13 0)
(0.1902479 9.827393e-13 0)
(0.1902479 7.6517651e-13 0)
(0.1902479 3.9300873e-13 0)
(0.1902479 -8.6979829e-14 0)
(0.1902479 -2.630169e-13 0)
(0.1902479 -5.1027655e-13 0)
(0.1902479 -4.598058e-13 0)
(0.1902479 -5.032998e-13 0)
(0.1902479 -3.8540055e-13 0)
(0.1902479 -5.5321177e-13 0)
(0.1902479 -6.4919307e-13 0)
(0.1902479 -8.9693077e-13 0)
(0.1902479 -8.1286021e-13 0)
(0.1902479 -6.3381261e-13 0)
(0.1902479 -1.1791684e-13 0)
(0.1902479 2.0338415e-13 0)
(0.1902479 4.8754631e-13 0)
(0.1902479 5.07165e-13 0)
(0.1902479 5.2267215e-13 0)
(0.1902479 4.0961791e-13 0)
(0.1902479 4.7121757e-13 0)
(0.1902479 4.3194414e-13 0)
(0.1902479 5.4386959e-13 0)
(0.1902479 5.0235593e-13 0)
(0.1902479 5.9901828e-13 0)
(0.1902479 5.4148885e-13 0)
(0.1902479 6.1079576e-13 0)
(0.1902479 5.2437753e-13 0)
(0.1902479 5.399478e-13 0)
(0.1902479 4.13959e-13 0)
(0.1902479 3.8080011e-13 0)
(0.1902479 2.8636644e-13 0)
(0.1902479 2.8957079e-13 0)
(0.1902479 2.1830981e-13 0)
(0.1902479 2.1694682e-13 0)
(0.1902479 2.6396768e-13 0)
(0.1902479 4.4105092e-13 0)
(0.1902479 5.7592372e-13 0)
(0.1902479 4.870232e-13 0)
(0.1902479 1.9006931e-13 0)
(0.1902479 -2.086539e-13 0)
(0.1902479 -5.4661548e-13 0)
(0.1902479 -7.5493492e-13 0)
(0.1902479 -8.870532e-13 0)
(0.1902479 -8.568216e-13 0)
(0.1902479 -6.9083671e-13 0)
(0.1902479 -2.6617392e-13 0)
(0.1902479 2.5789075e-13 0)
(0.1902479 6.0757486e-13 0)
(0.1902479 7.2667704e-13 0)
(0.1902479 3.1989584e-13 0)
(0.1902479 -1.4592016e-13 0)
(0.1902479 -6.8353539e-13 0)
(0.1902479 -9.1917019e-13 0)
(0.1902479 -7.8879011e-13 0)
(0.1902479 -3.081228e-13 0)
(0.1902479 3.1718217e-13 0)
(0.1902479 8.4067383e-13 0)
(0.1902479 1.0721919e-12 0)
(0.1902479 8.4109043e-13 0)
(0.1902479 2.3208925e-13 0)
(0.1902479 -4.0915832e-13 0)
(0.1902479 -7.6394978e-13 0)
(0.1902479 -7.4210949e-13 0)
(0.1902479 -3.0366087e-13 0)
(0.1902479 1.7857679e-13 0)
(0.1902479 5.6076671e-13 0)
(0.1902479 7.0327342e-13 0)
(0.1902479 6.8083284e-13 0)
(0.1902479 5.1473817e-13 0)
(0.1902479 4.3006234e-13 0)
(0.1902479 3.6844159e-13 0)
(0.1902479 3.9016397e-13 0)
(0.1902479 3.5168778e-13 0)
(0.1902479 3.9691522e-13 0)
(0.1902479 4.7076778e-13 0)
(0.1902479 6.376342e-13 0)
(0.1902479 6.7239823e-13 0)
(0.1902479 5.1746471e-13 0)
(0.1902479 1.3145915e-13 0)
(0.1902479 -3.0241664e-13 0)
(0.1902479 -6.0750911e-13 0)
(0.1902479 -7.2894271e-13 0)
(0.1902479 -6.5871024e-13 0)
(0.1902479 -5.4007728e-13 0)
(0.1902479 -4.4955331e-13 0)
(0.1902479 -4.8840116e-13 0)
(0.1902479 -6.0747728e-13 0)
(0.1902479 -7.7487555e-13 0)
(0.1902479 -7.5163994e-13 0)
(0.1902479 -4.9047203e-13 0)
(0.1902479 -1.8952892e-14 0)
(0.1902479 3.6711104e-13 0)
(0.1902479 5.9217297e-13 0)
(0.1902479 5.6674209e-13 0)
(0.1902479 5.0798338e-13 0)
(0.1902479 3.7667659e-13 0)
(0.1902479 4.16949e-13 0)
(0.1902479 3.9217791e-13 0)
(0.1902479 4.2941822e-13 0)
(0.1902479 3.1683268e-13 0)
(0.1902479 4.7823145e-13 0)
(0.1902479 7.3083535e-13 0)
(0.1902479 8.2482453e-13 0)
(0.1902479 1.1679646e-13 0)
(0.1902479 -2.7285511e-13 0)
(0.59346672 0.21467329 0)
(0.54593347 0.075998398 0)
(0.39702192 0.039312291 0)
(0.34953974 0.019720554 0)
(0.30792187 0.010726734 0)
(0.28963523 0.0061583782 0)
(0.27651264 0.0034761886 0)
(0.26994405 0.0020291116 0)
(0.26565503 0.0011409982 0)
(0.26342423 0.00065141376 0)
(0.26206335 0.00035633811 0)
(0.26136077 0.00019487636 0)
(0.26095907 0.00010129522 0)
(0.26076048 5.1591553e-05 0)
(0.260656 2.4315763e-05 0)
(0.26060945 1.064345e-05 0)
(0.26058866 3.760108e-06 0)
(0.26058217 7.1124905e-07 0)
(0.26058122 -5.4283139e-07 0)
(0.26058278 -8.8427627e-07 0)
(0.2605848 -8.6448987e-07 0)
(0.26058673 -7.0541001e-07 0)
(0.26058825 -5.2957936e-07 0)
(0.26058939 -3.7474094e-07 0)
(0.26059018 -2.5543689e-07 0)
(0.26059072 -1.6858414e-07 0)
(0.26059108 -1.0861965e-07 0)
(0.2605913 -6.8404484e-08 0)
(0.26059144 -4.2260927e-08 0)
(0.26059153 -2.5611486e-08 0)
(0.26059159 -1.5246933e-08 0)
(0.26059162 -8.9071883e-09 0)
(0.26059163 -5.1028805e-09 0)
(0.26059165 -2.8604043e-09 0)
(0.26059165 -1.56405e-09 0)
(0.26059165 -8.308209e-10 0)
(0.26059166 -4.2445501e-10 0)
(0.26059166 -2.0623328e-10 0)
(0.26059166 -9.1969454e-11 0)
(0.26059166 -3.6015995e-11 0)
(0.26059166 -9.8987751e-12 0)
(0.26059166 4.4811557e-13 0)
(0.26059166 4.4031149e-12 0)
(0.26059166 4.6410473e-12 0)
(0.26059166 4.0525117e-12 0)
(0.26059166 2.7841268e-12 0)
(0.26059166 1.8995362e-12 0)
(0.26059166 1.2351675e-12 0)
(0.26059166 6.1966284e-13 0)
(0.26059166 3.5890532e-13 0)
(0.26059166 -2.8913561e-13 0)
(0.26059166 -1.3343299e-13 0)
(0.26059166 -6.1831077e-13 0)
(0.26059166 -3.4079554e-13 0)
(0.26059166 -7.7371589e-13 0)
(0.26059166 -2.927986e-13 0)
(0.26059166 -3.2925753e-13 0)
(0.26059166 3.9495964e-13 0)
(0.26059166 -1.8737726e-13 0)
(0.26059166 4.3386003e-13 0)
(0.26059166 -2.4063143e-13 0)
(0.26059166 4.4172049e-13 0)
(0.26059166 -3.3224475e-13 0)
(0.26059166 1.8045674e-13 0)
(0.26059166 -7.0403899e-13 0)
(0.26059166 -1.1881332e-13 0)
(0.26059166 -4.2725456e-13 0)
(0.26059166 3.7648739e-13 0)
(0.26059166 2.7646337e-13 0)
(0.26059166 7.8107471e-13 0)
(0.26059166 9.1727095e-14 0)
(0.26059166 6.3191699e-13 0)
(0.26059166 4.7298489e-13 0)
(0.26059166 1.2373375e-12 0)
(0.26059166 9.9253187e-13 0)
(0.26059166 1.3708048e-12 0)
(0.26059166 8.7496411e-13 0)
(0.26059166 1.065057e-12 0)
(0.26059166 6.9830016e-13 0)
(0.26059166 9.4855284e-13 0)
(0.26059166 7.2359335e-13 0)
(0.26059166 9.3089519e-13 0)
(0.26059166 7.6944016e-13 0)
(0.26059166 9.0299194e-13 0)
(0.26059166 8.034218e-13 0)
(0.26059166 8.6970763e-13 0)
(0.26059166 8.3664421e-13 0)
(0.26059166 8.3245358e-13 0)
(0.26059166 8.6275265e-13 0)
(0.26059166 7.7226509e-13 0)
(0.26059166 8.5202516e-13 0)
(0.26059166 6.5602976e-13 0)
(0.26059166 7.7832948e-13 0)
(0.26059166 5.1722492e-13 0)
(0.26059166 7.1604494e-13 0)
(0.26059166 3.7312034e-13 0)
(0.26059166 5.6666827e-13 0)