/*--------------------------------*- C++ -*----------------------------------*\
| =========                 |                                                 |
| \\      /  F ield         | OpenFOAM: The Open Source CFD Toolbox           |
|  \\    /   O peration     | Version:  2206                                  |
|   \\  /    A nd           | Website:  www.openfoam.com                      |
|    \\/     M anipulation  |                                                 |
\*---------------------------------------------------------------------------*/
FoamFile
{
    version     2.0;
    format      ascii;
    arch        "LSB;label=32;scalar=64";
    class       surfaceScalarField;
    location    "21";
    object      phi;
}
// * * * * * * * * * * * * * * * * * * * * * * * * * * * * * * * * * * * * * //

dimensions      [0 3 -1 0 0 0 0];

oriented        oriented;

internalField   nonuniform List<scalar> 
29650
(
6.0867649e-05
0.00020579915
3.271817e-05
2.8149472e-05
2.4599021e-05
8.1191364e-06
2.0417848e-05
4.1811623e-06
1.8552177e-05
1.865668e-06
1.73737e-05
1.178481e-06
1.6781661e-05
5.9204252e-07
1.6412315e-05
3.6934519e-07
1.6220821e-05
1.9148626e-07
1.6106686e-05
1.1412306e-07
1.6048258e-05
5.8415643e-08
1.6015474e-05
3.2774059e-08
1.5999541e-05
1.5925657e-08
1.5991376e-05
8.16212e-09
1.5987889e-05
3.4858632e-09
1.598644e-05
1.4489044e-09
1.598609e-05
3.5071298e-10
1.5986138e-05
-4.6798025e-11
1.5986349e-05
-2.1023192e-10
1.5986569e-05
-2.1932301e-10
1.5986762e-05
-1.919562e-10
1.5986908e-05
-1.4600704e-10
1.5987014e-05
-1.0620561e-10
1.5987087e-05
-7.2963741e-11
1.5987136e-05
-4.8936795e-11
1.5987167e-05
-3.171912e-11
1.5987187e-05
-2.0178858e-11
1.59872e-05
-1.2518506e-11
1.5987208e-05
-7.6407005e-12
1.5987212e-05
-4.5674317e-12
1.5987215e-05
-2.6837064e-12
1.5987216e-05
-1.5414885e-12
1.5987217e-05
-8.6589189e-13
1.5987218e-05
-4.7442996e-13
1.5987218e-05
-2.5310529e-13
1.5987218e-05
-1.3014087e-13
1.5987218e-05
-6.2553559e-14
1.5987218e-05
-2.7055175e-14
1.5987218e-05
-9.5374203e-15
1.5987218e-05
-2.0517355e-15
1.5987218e-05
7.3279264e-16
1.5987218e-05
1.2024583e-15
1.5987218e-05
1.4170981e-15
1.5987218e-05
1.9763857e-15
1.5987218e-05
3.1077122e-15
1.5987218e-05
3.1330996e-15
1.5987218e-05
1.6353589e-15
1.5987218e-05
-5.9682283e-16
1.5987218e-05
-2.046997e-15
1.5987218e-05
-2.9824894e-15
1.5987218e-05
-2.5932004e-15
1.5987218e-05
-2.4632813e-15
1.5987218e-05
-1.9068826e-15
1.5987218e-05
-2.1111865e-15
1.5987218e-05
-2.0396184e-15
1.5987218e-05
-2.2648252e-15
1.5987218e-05
-1.8997845e-15
1.5987218e-05
-1.960614e-15
1.5987218e-05
-1.3375907e-15
1.5987218e-05
-1.5154207e-15
1.5987218e-05
-9.9065659e-16
1.5987218e-05
-8.4123215e-16
1.5987218e-05
-1.0641811e-16
1.5987218e-05
-1.2413209e-16
1.5987218e-05
1.8721901e-16
1.5987218e-05
-2.8075041e-16
1.5987218e-05
-4.0839223e-16
1.5987218e-05
-1.2044114e-15
1.5987218e-05
-1.7040964e-15
1.5987218e-05
-2.5654743e-15
1.5987218e-05
-2.4300787e-15
1.5987218e-05
-2.6221807e-15
1.5987218e-05
-1.7681172e-15
1.5987218e-05
-1.1691869e-15
1.5987218e-05
-1.865079e-16
1.5987218e-05
2.9585069e-16
1.5987218e-05
9.9024388e-16
1.5987218e-05
1.1673829e-15
1.5987218e-05
1.5590168e-15
1.5987218e-05
1.4770424e-15
1.5987218e-05
1.6334647e-15
1.5987218e-05
1.4437672e-15
1.5987218e-05
1.5375563e-15
1.5987218e-05
1.3699901e-15
1.5987218e-05
1.4582505e-15
1.5987218e-05
1.3235167e-15
1.5987218e-05
1.3939908e-15
1.5987218e-05
1.2885018e-15
1.5987218e-05
1.3308588e-15
1.5987218e-05
1.2760717e-15
1.5987218e-05
1.3263701e-15
1.5987218e-05
1.3421577e-15
1.5987218e-05
1.3288836e-15
1.5987218e-05
1.3393988e-15
1.5987218e-05
1.354754e-15
1.5987218e-05
1.5452866e-15
1.5987218e-05
1.5396717e-15
1.5987218e-05
1.4791031e-15
1.5987218e-05
1.1080116e-15
1.5987218e-05
9.4893393e-16
1.5987218e-05
1.0147046e-15
1.5987218e-05
1.5037266e-15
1.5987218e-05
1.616466e-15
1.5987218e-05
1.7047806e-15
1.5987218e-05
1.3262619e-15
1.5987218e-05
1.1789435e-15
1.5987218e-05
3.2508798e-16
1.5987218e-05
-5.5498373e-16
1.5987218e-05
-1.6619557e-15
1.5987218e-05
-2.0307954e-15
1.5987218e-05
-2.0307335e-15
1.5987218e-05
-1.3593945e-15
1.5987218e-05
-7.2102507e-16
1.5987218e-05
9.9297445e-17
1.5987218e-05
7.74172e-16
1.5987218e-05
1.7764473e-15
1.5987218e-05
2.2129004e-15
1.5987218e-05
2.3758834e-15
1.5987218e-05
1.6379553e-15
1.5987218e-05
8.8296241e-16
1.5987218e-05
-7.9359957e-17
1.5987218e-05
-5.8605331e-16
1.5987218e-05
-1.0631574e-15
1.5987218e-05
-1.2250893e-15
1.5987218e-05
-1.4954815e-15
1.5987218e-05
-1.4701645e-15
1.5987218e-05
-1.5671485e-15
1.5987218e-05
-1.4410429e-15
1.5987218e-05
-1.4815348e-15
1.5987218e-05
-1.3747297e-15
1.5987218e-05
-1.4315495e-15
1.5987218e-05
-1.3625295e-15
1.5987218e-05
-1.422685e-15
1.5987218e-05
-1.3650097e-15
1.5987218e-05
-1.4189495e-15
1.5987218e-05
-1.3659217e-15
1.5987218e-05
-1.4162577e-15
1.5987218e-05
-1.3649176e-15
1.5987218e-05
-1.400602e-15
1.5987218e-05
-1.3430786e-15
1.5987218e-05
-1.375418e-15
1.5987218e-05
-1.333901e-15
1.5987218e-05
-1.3628736e-15
1.5987218e-05
-1.2998599e-15
1.5987218e-05
-1.2989858e-15
1.5987218e-05
-1.2756039e-15
1.5987218e-05
-1.295442e-15
1.5987218e-05
-1.1544536e-15
1.5987218e-05
-9.5737683e-16
1.5987218e-05
-8.6090175e-16
1.5987218e-05
-1.1111747e-15
1.5987218e-05
-1.6298734e-15
1.5987218e-05
-1.9789778e-15
1.5987218e-05
-1.9823901e-15
1.5987218e-05
-1.3041262e-15
1.5987218e-05
-4.2584658e-16
1.5987218e-05
4.1434362e-16
1.5987218e-05
9.8604866e-16
1.5987218e-05
1.3366194e-15
1.5987218e-05
1.5142653e-15
1.5987218e-05
1.6068457e-15
1.5987218e-05
1.6136129e-15
1.5987218e-05
1.5901213e-15
1.5987218e-05
1.5392718e-15
1.5987218e-05
1.492087e-15
1.5987218e-05
1.4999833e-15
1.5987218e-05
1.4529407e-15
1.5987218e-05
1.4789581e-15
1.5987218e-05
1.4459644e-15
1.5987218e-05
1.4816369e-15
1.5987218e-05
1.4573379e-15
1.5987218e-05
1.5002541e-15
1.5987218e-05
1.4762887e-15
1.5987218e-05
1.5137597e-15
1.5987218e-05
1.4971485e-15
1.5987218e-05
1.5316327e-15
1.5987218e-05
1.5366142e-15
1.5987218e-05
1.5579232e-15
1.5987218e-05
1.5699822e-15
1.5987218e-05
1.5677723e-15
1.5987218e-05
1.5920912e-15
1.5987218e-05
1.5785469e-15
1.5987218e-05
1.5759895e-15
1.5987218e-05
1.5263151e-15
1.5987218e-05
1.5548334e-15
1.5987218e-05
1.6009936e-15
1.5987218e-05
1.6191857e-15
1.5987218e-05
1.4473898e-15
1.5987218e-05
1.2308603e-15
1.5987218e-05
1.1202097e-15
1.5987218e-05
1.4388937e-15
1.5987218e-05
1.9062043e-15
1.5987218e-05
2.2537617e-15
1.5987218e-05
2.1157721e-15
1.5987218e-05
1.3897816e-15
1.5987218e-05
3.6053879e-16
1.5987218e-05
-4.3969171e-16
1.5987218e-05
-1.1346732e-15
1.5987218e-05
-1.4908218e-15
1.5987218e-05
-1.8384758e-15
1.5987218e-05
-1.9574181e-15
1.5987218e-05
-2.0360708e-15
1.5987218e-05
-1.9469289e-15
1.5987218e-05
-1.8831418e-15
1.5987218e-05
-1.7331103e-15
1.5987218e-05
-1.6298522e-15
1.5987218e-05
-1.4993299e-15
1.5987218e-05
-1.4385013e-15
1.5987218e-05
-1.4570465e-15
1.5987218e-05
-1.4360269e-15
1.5987218e-05
-1.3396288e-15
1.5987218e-05
-1.0706188e-15
1.5987218e-05
-9.9309959e-16
1.5987218e-05
-1.1583208e-15
1.5987218e-05
-1.703717e-15
1.5987218e-05
-2.0901414e-15
1.5987218e-05
-2.2647067e-15
1.5987218e-05
-1.8233094e-15
1.5987218e-05
-1.0413176e-15
1.5987218e-05
-1.1257619e-16
1.5987218e-05
5.7466115e-16
1.5987218e-05
1.0129245e-15
1.5987218e-05
1.1284008e-15
1.5987218e-05
1.2697156e-15
1.5987218e-05
1.5283398e-15
1.5987218e-05
1.996719e-15
1.5987218e-05
2.2386817e-15
1.5987218e-05
2.3261757e-15
1.5987218e-05
1.952608e-15
1.5987218e-05
1.4859389e-15
1.5987218e-05
7.325689e-16
1.5987218e-05
-1.3729294e-16
1.5987218e-05
-1.1200934e-15
1.5987218e-05
-1.86692e-15
1.5987218e-05
-1.9688229e-15
1.5987218e-05
-1.589078e-15
1.5987218e-05
-9.2143257e-16
1.5987218e-05
-3.2454264e-16
1.5987218e-05
2.8181612e-16
1.5987218e-05
1.036739e-15
1.5987218e-05
1.7694107e-15
1.5987218e-05
2.2748399e-15
1.5987218e-05
2.1956376e-15
1.5987218e-05
1.6161926e-15
1.5987218e-05
7.5959826e-16
1.5987218e-05
-7.6643921e-17
1.5987218e-05
-6.574907e-16
1.5987218e-05
-1.1231053e-15
1.5987218e-05
-1.2201304e-15
1.5987218e-05
-1.2303566e-15
1.5987218e-05
-1.2058719e-15
1.5987218e-05
-1.4629722e-15
1.5987218e-05
-1.8680966e-15
1.5987218e-05
-2.2551796e-15
1.5987218e-05
-2.2047426e-15
1.5987218e-05
-1.746135e-15
1.5987218e-05
-8.7970315e-16
1.5987218e-05
-9.6258144e-17
1.5987218e-05
5.7824916e-16
1.5987218e-05
9.687509e-16
1.5987218e-05
1.2608515e-15
1.5987218e-05
1.3984832e-15
1.5987218e-05
1.5546072e-15
1.5987218e-05
1.5464034e-15
1.5987218e-05
1.435876e-15
1.5987218e-05
1.1857298e-15
1.5987218e-05
1.1634044e-15
1.5987218e-05
1.3797407e-15
1.5987218e-05
1.8044239e-15
1.5987218e-05
2.0962975e-15
1.5987218e-05
2.1413436e-15
1.5987218e-05
1.8424041e-15
1.5987218e-05
1.0349149e-15
1.5987218e-05
-1.7036538e-17
1.5987218e-05
-1.123845e-15
1.5987218e-05
-1.8716618e-15
1.5987218e-05
-2.0175782e-15
1.5987218e-05
-1.6142983e-15
1.5987218e-05
-8.298144e-16
1.5987218e-05
-5.4182107e-17
1.5987218e-05
5.6355312e-16
1.5987218e-05
1.030609e-15
1.5987218e-05
1.2726951e-15
1.5987218e-05
1.4056437e-15
1.5987218e-05
1.4050061e-15
1.5987218e-05
1.3920049e-15
1.5987218e-05
1.3647608e-15
1.5987218e-05
1.4073611e-15
1.5987218e-05
1.3900769e-15
1.5987218e-05
1.414225e-15
1.5987218e-05
1.3438348e-15
1.5987218e-05
1.3549195e-15
1.5987218e-05
1.4153059e-15
1.5987218e-05
1.5604131e-15
1.5987218e-05
1.400126e-15
1.5987218e-05
1.0163841e-15
1.5987218e-05
1.0013663e-15
1.5987218e-05
1.7719141e-15
1.5987218e-05
2.1854941e-15
1.1194727e-15
0.00014027132
0.00033219463
9.2549244e-05
7.5871541e-05
7.0338072e-05
3.0330295e-05
5.9620313e-05
1.489891e-05
5.4019642e-05
7.4663378e-06
5.0795343e-05
4.4027846e-06
4.901105e-05
2.3763415e-06
4.7964745e-05
1.4156496e-06
4.7384385e-05
7.7183891e-07
4.7052234e-05
4.4626136e-07
4.6872682e-05
2.3795443e-07
4.677453e-05
1.3091541e-07
4.6724186e-05
6.6262756e-08
4.6698685e-05
3.366017e-08
4.6686924e-05
1.5245205e-08
4.6681892e-05
6.4811328e-09
4.6680252e-05
1.9924872e-09
4.6680058e-05
1.481737e-10
4.6680445e-05
-5.9604637e-10
4.6680961e-05
-7.3525725e-10
4.6681443e-05
-6.730145e-10
4.6681826e-05
-5.2917808e-10
4.668211e-05
-3.9024728e-10
4.6682309e-05
-2.7205687e-10
4.6682444e-05
-1.8380124e-10
4.6682532e-05
-1.202144e-10
4.6682589e-05
-7.6924551e-11
4.6682624e-05
-4.8080912e-11
4.6682646e-05
-2.9516552e-11
4.6682659e-05
-1.776534e-11
4.6682667e-05
-1.0506139e-11
4.6682672e-05
-6.0847622e-12
4.6682674e-05
-3.4518645e-12
4.6682676e-05
-1.9128771e-12
4.6682676e-05
-1.0339107e-12
4.6682677e-05
-5.4005607e-13
4.6682677e-05
-2.6838538e-13
4.6682677e-05
-1.2329786e-13
4.6682677e-05
-5.0308775e-14
4.6682677e-05
-1.6104502e-14
4.6682677e-05
-1.7071691e-15
4.6682677e-05
3.3575156e-15
4.6682677e-05
4.4447309e-15
4.6682677e-05
5.6603966e-15
4.6682677e-05
7.5957946e-15
4.6682677e-05
7.6583519e-15
4.6682677e-05
4.3507269e-15
4.6682677e-05
-8.825749e-17
4.6682677e-05
-4.1250803e-15
4.6682677e-05
-5.4694209e-15
4.6682677e-05
-5.4752296e-15
4.6682677e-05
-4.8402935e-15
4.6682677e-05
-4.2616476e-15
4.6682677e-05
-4.4527048e-15
4.6682677e-05
-4.641121e-15
4.6682677e-05
-4.7521225e-15
4.6682677e-05
-4.0688159e-15
4.6682677e-05
-3.348043e-15
4.6682677e-05
-3.0979382e-15
4.6682677e-05
-2.6941389e-15
4.6682677e-05
-2.4471853e-15
4.6682677e-05
-1.5103258e-15
4.6682677e-05
-5.5697748e-16
4.6682677e-05
-1.3494594e-16
4.6682677e-05
-7.2845353e-17
4.6682677e-05
-7.7722462e-16
4.6682677e-05
-1.2443167e-15
4.6682677e-05
-2.498743e-15
4.6682677e-05
-3.6127596e-15
4.6682677e-05
-4.7149406e-15
4.6682677e-05
-5.244705e-15
4.6682677e-05
-5.0234499e-15
4.6682677e-05
-3.9218904e-15
4.6682677e-05
-2.3033601e-15
4.6682677e-05
-7.6818408e-16
4.6682677e-05
7.008038e-16
4.6682677e-05
1.6441392e-15
4.6682677e-05
2.5974664e-15
4.6682677e-05
2.8776981e-15
4.6682677e-05
3.2681168e-15
4.6682677e-05
3.0126239e-15
4.6682677e-05
3.1981243e-15
4.6682677e-05
2.8047185e-15
4.6682677e-05
3.0646463e-15
4.6682677e-05
2.6468449e-15
4.6682677e-05
2.9897972e-15
4.6682677e-05
2.5224493e-15
4.6682677e-05
2.93313e-15
4.6682677e-05
2.4049598e-15
4.6682677e-05
2.9120332e-15
4.6682677e-05
2.4027318e-15
4.6682677e-05
3.0573563e-15
4.6682677e-05
2.4300664e-15
4.6682677e-05
3.0518163e-15
4.6682677e-05
2.428884e-15
4.6682677e-05
3.4675539e-15
4.6682677e-05
2.8671326e-15
4.6682677e-05
3.4180781e-15
4.6682677e-05
1.8389337e-15
4.6682677e-05
2.3380429e-15
4.6682677e-05
1.7761369e-15
4.6682677e-05
3.3963948e-15
4.6682677e-05
3.0927696e-15
4.6682677e-05
3.7785405e-15
4.6682677e-05
2.4545333e-15
4.6682677e-05
2.7944637e-15
4.6682677e-05
5.720788e-16
4.6682677e-05
-8.2065707e-16
4.6682677e-05
-3.6867872e-15
4.6682677e-05
-4.3957365e-15
4.6682677e-05
-4.564826e-15
4.6682677e-05
-3.1190024e-15
4.6682677e-05
-1.9320682e-15
4.6682677e-05
3.2114938e-16
4.6682677e-05
9.8828416e-16
4.6682677e-05
3.8431759e-15
4.6682677e-05
4.2467811e-15
4.6682677e-05
5.077155e-15
4.6682677e-05
3.2421629e-15
4.6682677e-05
2.0809897e-15
4.6682677e-05
-1.9749256e-16
4.6682677e-05
-9.2685366e-16
4.6682677e-05
-2.1754441e-15
4.6682677e-05
-2.3494536e-15
4.6682677e-05
-3.0714127e-15
4.6682677e-05
-2.9150432e-15
4.6682677e-05
-3.2221798e-15
4.6682677e-05
-2.8621934e-15
4.6682677e-05
-3.0266344e-15
4.6682677e-05
-2.7297794e-15
4.6682677e-05
-2.9188917e-15
4.6682677e-05
-2.7157259e-15
4.6682677e-05
-2.8943454e-15
4.6682677e-05
-2.7320211e-15
4.6682677e-05
-2.8845401e-15
4.6682677e-05
-2.7449649e-15
4.6682677e-05
-2.8764121e-15
4.6682677e-05
-2.7494075e-15
4.6682677e-05
-2.8431026e-15
4.6682677e-05
-2.7083586e-15
4.6682677e-05
-2.7873042e-15
4.6682677e-05
-2.6899261e-15
4.6682677e-05
-2.766928e-15
4.6682677e-05
-2.631781e-15
4.6682677e-05
-2.6300815e-15
4.6682677e-05
-2.573214e-15
4.6682677e-05
-2.6347435e-15
4.6682677e-05
-2.3880224e-15
4.6682677e-05
-1.959538e-15
4.6682677e-05
-1.6920447e-15
4.6682677e-05
-2.1992921e-15
4.6682677e-05
-3.155968e-15
4.6682677e-05
-4.0590189e-15
4.6682677e-05
-4.1018001e-15
4.6682677e-05
-2.77049e-15
4.6682677e-05
-1.0879944e-15
4.6682677e-05
6.9584211e-16
4.6682677e-05
1.856329e-15
4.6682677e-05
2.6282468e-15
4.6682677e-05
3.0099642e-15
4.6682677e-05
3.196098e-15
4.6682677e-05
3.2334503e-15
4.6682677e-05
3.1872522e-15
4.6682677e-05
3.0607509e-15
4.6682677e-05
2.9967799e-15
4.6682677e-05
2.9523652e-15
4.6682677e-05
2.8975786e-15
4.6682677e-05
2.9031166e-15
4.6682677e-05
2.8845087e-15
4.6682677e-05
2.9059266e-15
4.6682677e-05
2.9044354e-15
4.6682677e-05
2.9426322e-15
4.6682677e-05
2.9406698e-15
4.6682677e-05
2.9701913e-15
4.6682677e-05
2.9748217e-15
4.6682677e-05
3.0043313e-15
4.6682677e-05
3.0407032e-15
4.6682677e-05
3.0607318e-15
4.6682677e-05
3.0887364e-15
4.6682677e-05
3.085045e-15
4.6682677e-05
3.1251638e-15
4.6682677e-05
3.1179747e-15
4.6682677e-05
3.1091804e-15
4.6682677e-05
3.013204e-15
4.6682677e-05
3.0734199e-15
4.6682677e-05
3.1413073e-15
4.6682677e-05
3.2270556e-15
4.6682677e-05
2.8752302e-15
4.6682677e-05
2.4021668e-15
4.6682677e-05
2.0832228e-15
4.6682677e-05
2.7296112e-15
4.6682677e-05
3.6387488e-15
4.6682677e-05
4.5173821e-15
4.6682677e-05
4.3123751e-15
4.6682677e-05
2.8486576e-15
4.6682677e-05
8.8714519e-16
4.6682677e-05
-8.5578072e-16
4.6682677e-05
-2.2091635e-15
4.6682677e-05
-2.9922269e-15
4.6682677e-05
-3.6456866e-15
4.6682677e-05
-3.9011036e-15
4.6682677e-05
-4.0143401e-15
4.6682677e-05
-3.850313e-15
4.6682677e-05
-3.6937162e-15
4.6682677e-05
-3.3958208e-15
4.6682677e-05
-3.177295e-15
4.6682677e-05
-2.905376e-15
4.6682677e-05
-2.774184e-15
4.6682677e-05
-2.787567e-15
4.6682677e-05
-2.8035074e-15
4.6682677e-05
-2.584802e-15
4.6682677e-05
-2.0828398e-15
4.6682677e-05
-1.803526e-15
4.6682677e-05
-2.1484325e-15
4.6682677e-05
-3.2017082e-15
4.6682677e-05
-4.1316192e-15
4.6682677e-05
-4.5226998e-15
4.6682677e-05
-3.7118886e-15
4.6682677e-05
-2.1728864e-15
4.6682677e-05
-3.2845476e-16
4.6682677e-05
1.1067374e-15
4.6682677e-05
2.0217465e-15
4.6682677e-05
2.2676216e-15
4.6682677e-05
2.4850003e-15
4.6682677e-05
2.9790659e-15
4.6682677e-05
3.8713872e-15
4.6682677e-05
4.4893869e-15
4.6682677e-05
4.6418294e-15
4.6682677e-05
3.9636417e-15
4.6682677e-05
3.0442463e-15
4.6682677e-05
1.5673784e-15
4.6682677e-05
-8.505347e-17
4.6682677e-05
-2.2320638e-15
4.6682677e-05
-3.7302268e-15
4.6682677e-05
-4.0856109e-15
4.6682677e-05
-3.3453604e-15
4.6682677e-05
-1.9583239e-15
4.6682677e-05
-8.4832578e-16
4.6682677e-05
4.0057491e-16
4.6682677e-05
1.8215408e-15
4.6682677e-05
3.4710541e-15
4.6682677e-05
4.5109769e-15
4.6682677e-05
4.444441e-15
4.6682677e-05
3.3432812e-15
4.6682677e-05
1.5833471e-15
4.6682677e-05
-2.9190655e-17
4.6682677e-05
-1.3110702e-15
4.6682677e-05
-2.2438173e-15
4.6682677e-05
-2.5050345e-15
4.6682677e-05
-2.4987328e-15
4.6682677e-05
-2.3740988e-15
4.6682677e-05
-2.7930389e-15
4.6682677e-05
-3.6428575e-15
4.6682677e-05
-4.4497782e-15
4.6682677e-05
-4.4326542e-15
4.6682677e-05
-3.5461424e-15
4.6682677e-05
-1.8647051e-15
4.6682677e-05
-2.6338477e-16
4.6682677e-05
1.1012679e-15
4.6682677e-05
1.9475717e-15
4.6682677e-05
2.5297021e-15
4.6682677e-05
2.8435108e-15
4.6682677e-05
3.133513e-15
4.6682677e-05
3.1711785e-15
4.6682677e-05
2.9090349e-15
4.6682677e-05
2.4335684e-15
4.6682677e-05
2.2780099e-15
4.6682677e-05
2.7242309e-15
4.6682677e-05
3.5673876e-15
4.6682677e-05
4.2185326e-15
4.6682677e-05
4.360453e-15
4.6682677e-05
3.7939511e-15
4.6682677e-05
2.2837902e-15
4.6682677e-05
2.1591727e-16
4.6682677e-05
-2.1189547e-15
4.6682677e-05
-3.687552e-15
4.6682677e-05
-4.1331809e-15
4.6682677e-05
-3.3784281e-15
4.6682677e-05
-1.7876412e-15
4.6682677e-05
-2.9005559e-16
4.6682677e-05
1.0497624e-15
4.6682677e-05
1.9873757e-15
4.6682677e-05
2.55464e-15
4.6682677e-05
2.8116222e-15
4.6682677e-05
2.8253903e-15
4.6682677e-05
2.7971245e-15
4.6682677e-05
2.7584695e-15
4.6682677e-05
2.7819167e-15
4.6682677e-05
2.8024345e-15
4.6682677e-05
2.8050332e-15
4.6682677e-05
2.711466e-15
4.6682677e-05
2.6704457e-15
4.6682677e-05
2.8174331e-15
4.6682677e-05
3.0890068e-15
4.6682677e-05
2.8815151e-15
4.6682677e-05
2.0705193e-15
4.6682677e-05
1.8534021e-15
4.6682677e-05
3.2812401e-15
4.6682677e-05
4.5182628e-15
2.5805084e-15
0.00019469214
0.00040416929
0.00014360962
0.00012695407
0.00011230147
6.1638438e-05
9.6619294e-05
3.0581092e-05
8.776222e-05
1.6323412e-05
8.2755405e-05
9.4096013e-06
7.9871701e-05
5.2600506e-06
7.8206034e-05
3.0813237e-06
7.7256668e-05
1.7212118e-06
7.6718195e-05
9.8474155e-07
7.6420463e-05
5.3569086e-07
7.6258218e-05
2.9316212e-07
7.6172993e-05
1.5148834e-07
7.61296e-05
7.705286e-08
7.6108851e-05
3.5993156e-08
7.6099695e-05
1.5635896e-08
7.6096324e-05
5.3627211e-09
7.6095587e-05
8.8457217e-10
7.6095937e-05
-9.454349e-10
7.6096611e-05
-1.4099131e-09
7.609729e-05
-1.3523109e-09
7.6097854e-05
-1.0925832e-09
7.609828e-05
-8.1630454e-10
7.6098584e-05
-5.7548268e-10
7.6098791e-05
-3.9138936e-10
7.6098929e-05
-2.5773819e-10
7.6099018e-05
-1.6576333e-10
7.6099074e-05
-1.0418524e-10
7.6099108e-05
-6.4254075e-11
7.609913e-05
-3.8868052e-11
7.6099142e-05
-2.3094545e-11
7.609915e-05
-1.3456568e-11
7.6099154e-05
-7.6850835e-12
7.6099156e-05
-4.2922452e-12
7.6099157e-05
-2.3384602e-12
7.6099158e-05
-1.235212e-12
7.6099158e-05
-6.2495758e-13
7.6099159e-05
-2.9722367e-13
7.6099159e-05
-1.2805159e-13
7.6099159e-05
-4.6091103e-14
7.6099159e-05
-9.5127268e-15
7.6099159e-05
4.4435209e-15
7.6099159e-05
9.1835073e-15
7.6099159e-05
1.0978876e-14
7.6099159e-05
1.2176167e-14
7.6099159e-05
1.0574969e-14
7.6099159e-05
5.8729133e-15
7.6099159e-05
2.6734983e-16
7.6099159e-05
-3.8029912e-15
7.6099159e-05
-5.7626088e-15
7.6099159e-05
-5.3314724e-15
7.6099159e-05
-4.7747713e-15
7.6099159e-05
-3.7451459e-15
7.6099159e-05
-4.1430728e-15
7.6099159e-05
-4.1817168e-15
7.6099159e-05
-4.646831e-15
7.6099159e-05
-3.9867111e-15
7.6099159e-05
-3.8801337e-15
7.6099159e-05
-2.9195698e-15
7.6099159e-05
-3.0074643e-15
7.6099159e-05
-2.2146055e-15
7.6099159e-05
-1.73228e-15
7.6099159e-05
-4.6467098e-16
7.6099159e-05
-2.6667849e-16
7.6099159e-05
2.4185654e-16
7.6099159e-05
-6.2472649e-16
7.6099159e-05
-1.0376207e-15
7.6099159e-05
-2.7014037e-15
7.6099159e-05
-3.8914504e-15
7.6099159e-05
-5.4514732e-15
7.6099159e-05
-5.3018336e-15
7.6099159e-05
-5.2132998e-15
7.6099159e-05
-3.3962711e-15
7.6099159e-05
-1.9299569e-15
7.6099159e-05
-4.604714e-17
7.6099159e-05
1.0605821e-15
7.6099159e-05
2.2198584e-15
7.6099159e-05
2.7883795e-15
7.6099159e-05
3.4015548e-15
7.6099159e-05
3.5048973e-15
7.6099159e-05
3.6171539e-15
7.6099159e-05
3.4782453e-15
7.6099159e-05
3.4042136e-15
7.6099159e-05
3.2873935e-15
7.6099159e-05
3.1695093e-15
7.6099159e-05
3.1322071e-15
7.6099159e-05
2.9684596e-15
7.6099159e-05
3.0108037e-15
7.6099159e-05
2.8004817e-15
7.6099159e-05
2.9828971e-15
7.6099159e-05
2.8056867e-15
7.6099159e-05
3.1749254e-15
7.6099159e-05
2.8728852e-15
7.6099159e-05
3.2619512e-15
7.6099159e-05
3.0291615e-15
7.6099159e-05
3.8044848e-15
7.6099159e-05
3.4558054e-15
7.6099159e-05
3.6613144e-15
7.6099159e-05
2.5186131e-15
7.6099159e-05
2.7157659e-15
7.6099159e-05
2.5723411e-15
7.6099159e-05
3.893277e-15
7.6099159e-05
3.5964352e-15
7.6099159e-05
3.7922902e-15
7.6099159e-05
2.3724047e-15
7.6099159e-05
2.1089464e-15
7.6099159e-05
-5.3298967e-17
7.6099159e-05
-1.5396124e-15
7.6099159e-05
-4.0058294e-15
7.6099159e-05
-4.4753435e-15
7.6099159e-05
-4.3629254e-15
7.6099159e-05
-2.684286e-15
7.6099159e-05
-1.2958746e-15
7.6099159e-05
7.9384559e-16
7.6099159e-05
1.9330734e-15
7.6099159e-05
4.3537166e-15
7.6099159e-05
4.763503e-15
7.6099159e-05
5.0559083e-15
7.6099159e-05
3.0456046e-15
7.6099159e-05
1.5178594e-15
7.6099159e-05
-6.707916e-16
7.6099159e-05
-1.4772229e-15
7.6099159e-05
-2.5276439e-15
7.6099159e-05
-2.6910771e-15
7.6099159e-05
-3.334267e-15
7.6099159e-05
-3.2368298e-15
7.6099159e-05
-3.5507862e-15
7.6099159e-05
-3.2549567e-15
7.6099159e-05
-3.4231353e-15
7.6099159e-05
-3.1619905e-15
7.6099159e-05
-3.3426669e-15
7.6099159e-05
-3.1630077e-15
7.6099159e-05
-3.3373142e-15
7.6099159e-05
-3.1928035e-15
7.6099159e-05
-3.3487065e-15
7.6099159e-05
-3.2231035e-15
7.6099159e-05
-3.359367e-15
7.6099159e-05
-3.2395246e-15
7.6099159e-05
-3.3383624e-15
7.6099159e-05
-3.2085476e-15
7.6099159e-05
-3.2948714e-15
7.6099159e-05
-3.1952791e-15
7.6099159e-05
-3.2593737e-15
7.6099159e-05
-3.1030313e-15
7.6099159e-05
-3.0908189e-15
7.6099159e-05
-3.0121956e-15
7.6099159e-05
-3.0239412e-15
7.6099159e-05
-2.7073762e-15
7.6099159e-05
-2.3008325e-15
7.6099159e-05
-2.1506486e-15
7.6099159e-05
-2.7373486e-15
7.6099159e-05
-3.702026e-15
7.6099159e-05
-4.2651062e-15
7.6099159e-05
-3.9853089e-15
7.6099159e-05
-2.3629365e-15
7.6099159e-05
-5.5024652e-16
7.6099159e-05
1.1465528e-15
7.6099159e-05
2.1841628e-15
7.6099159e-05
2.8188801e-15
7.6099159e-05
3.1317147e-15
7.6099159e-05
3.3497775e-15
7.6099159e-05
3.4339588e-15
7.6099159e-05
3.4824122e-15
7.6099159e-05
3.4193475e-15
7.6099159e-05
3.3657781e-15
7.6099159e-05
3.3624699e-15
7.6099159e-05
3.2811488e-15
7.6099159e-05
3.3037591e-15
7.6099159e-05
3.2487866e-15
7.6099159e-05
3.2853439e-15
7.6099159e-05
3.2505495e-15
7.6099159e-05
3.3122344e-15
7.6099159e-05
3.2839694e-15
7.6099159e-05
3.3413083e-15
7.6099159e-05
3.333062e-15
7.6099159e-05
3.3863183e-15
7.6099159e-05
3.4196426e-15
7.6099159e-05
3.4448843e-15
7.6099159e-05
3.4839219e-15
7.6099159e-05
3.4731842e-15
7.6099159e-05
3.5386866e-15
7.6099159e-05
3.5093892e-15
7.6099159e-05
3.511616e-15
7.6099159e-05
3.4123525e-15
7.6099159e-05
3.503934e-15
7.6099159e-05
3.5807605e-15
7.6099159e-05
3.6254638e-15
7.6099159e-05
3.2446203e-15
7.6099159e-05
2.8338393e-15
7.6099159e-05
2.6477351e-15
7.6099159e-05
3.3936208e-15
7.6099159e-05
4.2338318e-15
7.6099159e-05
4.7833513e-15
7.6099159e-05
4.1749087e-15
7.6099159e-05
2.4631488e-15
7.6099159e-05
3.4459484e-16
7.6099159e-05
-1.2582355e-15
7.6099159e-05
-2.5351024e-15
7.6099159e-05
-3.168898e-15
7.6099159e-05
-3.8036527e-15
7.6099159e-05
-4.0629891e-15
7.6099159e-05
-4.23841e-15
7.6099159e-05
-4.0981479e-15
7.6099159e-05
-3.9638912e-15
7.6099159e-05
-3.6637998e-15
7.6099159e-05
-3.441548e-15
7.6099159e-05
-3.2055944e-15
7.6099159e-05
-3.1105947e-15
7.6099159e-05
-3.2003795e-15
7.6099159e-05
-3.1792429e-15
7.6099159e-05
-2.9805162e-15
7.6099159e-05
-2.464772e-15
7.6099159e-05
-2.3686983e-15
7.6099159e-05
-2.7847356e-15
7.6099159e-05
-3.8611078e-15
7.6099159e-05
-4.4966317e-15
7.6099159e-05
-4.5651484e-15
7.6099159e-05
-3.3605639e-15
7.6099159e-05
-1.6229186e-15
7.6099159e-05
2.9706719e-16
7.6099159e-05
1.6215461e-15
7.6099159e-05
2.4094369e-15
7.6099159e-05
2.5883425e-15
7.6099159e-05
2.8943237e-15
7.6099159e-05
3.4826702e-15
7.6099159e-05
4.4060627e-15
7.6099159e-05
4.7739727e-15
7.6099159e-05
4.691056e-15
7.6099159e-05
3.6587117e-15
7.6099159e-05
2.5381365e-15
7.6099159e-05
8.9896509e-16
7.6099159e-05
-8.4402628e-16
7.6099159e-05
-2.7858944e-15
7.6099159e-05
-4.0428393e-15
7.6099159e-05
-3.9612357e-15
7.6099159e-05
-2.964789e-15
7.6099159e-05
-1.4641703e-15
7.6099159e-05
-2.4440812e-16
7.6099159e-05
1.0255629e-15
7.6099159e-05
2.4910251e-15
7.6099159e-05
3.9389173e-15
7.6099159e-05
4.7636124e-15
7.6099159e-05
4.3280593e-15
7.6099159e-05
2.958615e-15
7.6099159e-05
1.1056938e-15
7.6099159e-05
-5.5683808e-16
7.6099159e-05
-1.6939789e-15
7.6099159e-05
-2.5435648e-15
7.6099159e-05
-2.6912262e-15
7.6099159e-05
-2.7315635e-15
7.6099159e-05
-2.7584171e-15
7.6099159e-05
-3.3515448e-15
7.6099159e-05
-4.1771415e-15
7.6099159e-05
-4.8006539e-15
7.6099159e-05
-4.411524e-15
7.6099159e-05
-3.2070494e-15
7.6099159e-05
-1.3172289e-15
7.6099159e-05
3.0374829e-16
7.6099159e-05
1.6139481e-15
7.6099159e-05
2.338197e-15
7.6099159e-05
2.8875749e-15
7.6099159e-05
3.1701613e-15
7.6099159e-05
3.4984804e-15
7.6099159e-05
3.4863508e-15
7.6099159e-05
3.2401428e-15
7.6099159e-05
2.7687092e-15
7.6099159e-05
2.7776742e-15
7.6099159e-05
3.2821466e-15
7.6099159e-05
4.102274e-15
7.6099159e-05
4.5321733e-15
7.6099159e-05
4.3828718e-15
7.6099159e-05
3.4715083e-15
7.6099159e-05
1.6584793e-15
7.6099159e-05
-5.2033766e-16
7.6099159e-05
-2.6752154e-15
7.6099159e-05
-3.9313047e-15
7.6099159e-05
-3.9435216e-15
7.6099159e-05
-2.907535e-15
7.6099159e-05
-1.200415e-15
7.6099159e-05
3.3418605e-16
7.6099159e-05
1.5528913e-15
7.6099159e-05
2.4196131e-15
7.6099159e-05
2.8953791e-15
7.6099159e-05
3.1605475e-15
7.6099159e-05
3.1900237e-15
7.6099159e-05
3.2008541e-15
7.6099159e-05
3.1762914e-15
7.6099159e-05
3.2495388e-15
7.6099159e-05
3.2206925e-15
7.6099159e-05
3.2385237e-15
7.6099159e-05
3.0981688e-15
7.6099159e-05
3.1141707e-15
7.6099159e-05
3.2605602e-15
7.6099159e-05
3.5233547e-15
7.6099159e-05
3.165197e-15
7.6099159e-05
2.4035363e-15
7.6099159e-05
2.4773853e-15
7.6099159e-05
4.034193e-15
7.6099159e-05
4.7146677e-15
2.3287607e-15
0.00023312986
0.00043770622
0.00018548526
0.00017459866
0.00015018421
9.6939496e-05
0.0001310242
4.9741107e-05
0.00011965162
2.7695994e-05
0.0001131446
1.5916627e-05
0.00010931814
9.0865206e-06
0.00010710183
5.2976504e-06
0.00010582149
3.0015685e-06
0.00010509347
1.712788e-06
0.00010468612
9.4304983e-07
0.00010446306
5.1622796e-07
0.00010434425
2.7030575e-07
0.00010428311
1.3818821e-07
0.00010425319
6.5911031e-08
0.00010423959
2.9233115e-08
0.0001042342
1.075233e-08
0.00010423268
2.4051161e-09
0.00010423281
-1.0804372e-09
0.00010423352
-2.1161685e-09
0.00010423431
-2.1442126e-09
0.000104235
-1.7794788e-09
0.00010423553
-1.3481128e-09
0.00010423592
-9.6044021e-10
0.00010423618
-6.5773839e-10
0.00010423636
-4.3585746e-10
0.00010423648
-2.8169486e-10
0.00010423655
-1.7790862e-10
0.0001042366
-1.1018027e-10
0.00010423662
-6.6935234e-11
0.00010423664
-3.9940112e-11
0.00010423665
-2.3383739e-11
0.00010423666
-1.3424958e-11
0.00010423666
-7.5415748e-12
0.00010423666
-4.1355205e-12
0.00010423666
-2.2024497e-12
0.00010423666
-1.129464e-12
0.00010423666
-5.4839945e-13
0.00010423666
-2.4464584e-13
0.00010423666
-9.3845954e-14
0.00010423666
-2.4952865e-14
0.00010423666
3.0473749e-15
0.00010423666
1.3006714e-14
0.00010423666
1.6577227e-14
0.00010423666
1.6930866e-14
0.00010423666
1.3235122e-14
0.00010423666
6.7172759e-15
0.00010423666
8.8990165e-16
0.00010423666
-3.5891999e-15
0.00010423666
-5.1434445e-15
0.00010423666
-4.864511e-15
0.00010423666
-3.8292278e-15
0.00010423666
-2.9322636e-15
0.00010423666
-3.1783823e-15
0.00010423666
-3.3895158e-15
0.00010423666
-3.8614433e-15
0.00010423666
-3.3823769e-15
0.00010423666
-3.0290363e-15
0.00010423666
-2.6921367e-15
0.00010423666
-2.2703892e-15
0.00010423666
-2.1015703e-15
0.00010423666
-1.6989398e-15
0.00010423666
-9.8598941e-16
0.00010423666
-6.9044743e-16
0.00010423666
-2.2299301e-16
0.00010423666
-9.2099083e-16
0.00010423666
-1.3996373e-15
0.00010423666
-3.0954597e-15
0.00010423666
-4.3276967e-15
0.00010423666
-5.3459646e-15
0.00010423666
-5.1342241e-15
0.00010423666
-4.0105275e-15
0.00010423666
-2.1364149e-15
0.00010423666
-3.879573e-16
0.00010423666
1.0117523e-15
0.00010423666
1.9518192e-15
0.00010423666
2.4154893e-15
0.00010423666
3.0560208e-15
0.00010423666
3.2805814e-15
0.00010423666
3.774726e-15
0.00010423666
3.6119755e-15
0.00010423666
3.8700608e-15
0.00010423666
3.4079061e-15
0.00010423666
3.6331163e-15
0.00010423666
3.0609572e-15
0.00010423666
3.3777584e-15
0.00010423666
2.7457335e-15
0.00010423666
3.1708316e-15
0.00010423666
2.4981911e-15
0.00010423666
3.1188266e-15
0.00010423666
2.4961317e-15
0.00010423666
3.3405387e-15
0.00010423666
2.5810255e-15
0.00010423666
3.5605523e-15
0.00010423666
2.927829e-15
0.00010423666
4.2929909e-15
0.00010423666
3.3020588e-15
0.00010423666
4.0516613e-15
0.00010423666
2.3679923e-15
0.00010423666
3.6611082e-15
0.00010423666
3.1898298e-15
0.00010423666
4.8863486e-15
0.00010423666
3.5921615e-15
0.00010423666
3.6521514e-15
0.00010423666
1.0019257e-15
0.00010423666
7.8691716e-16
0.00010423666
-1.9977723e-15
0.00010423666
-2.644235e-15
0.00010423666
-4.9517915e-15
0.00010423666
-4.5016196e-15
0.00010423666
-4.0286758e-15
0.00010423666
-1.7662127e-15
0.00010423666
-3.7762465e-16
0.00010423666
2.2428049e-15
0.00010423666
2.5101311e-15
0.00010423666
5.1522101e-15
0.00010423666
4.3315406e-15
0.00010423666
4.4005149e-15
0.00010423666
1.4983862e-15
0.00010423666
3.2946237e-16
0.00010423666
-1.9588784e-15
0.00010423666
-2.110744e-15
0.00010423666
-3.044312e-15
0.00010423666
-2.7056114e-15
0.00010423666
-3.4329615e-15
0.00010423666
-3.1657275e-15
0.00010423666
-3.7276154e-15