/*--------------------------------*- C++ -*----------------------------------*\
| =========                 |                                                 |
| \\      /  F ield         | OpenFOAM: The Open Source CFD Toolbox           |
|  \\    /   O peration     | Version:  2206                                  |
|   \\  /    A nd           | Website:  www.openfoam.com                      |
|    \\/     M anipulation  |                                                 |
\*---------------------------------------------------------------------------*/
FoamFile
{
    version     2.0;
    format      ascii;
    arch        "LSB;label=32;scalar=64";
    class       volVectorField;
    location    "21";
    object      U;
}
// * * * * * * * * * * * * * * * * * * * * * * * * * * * * * * * * * * * * * //

dimensions      [0 1 -1 0 0 0 0];

internalField   nonuniform List<vector> 
15000
(
(0.15962853 0.053997677 0)
(0.11557193 0.006491638 0)
(0.064251361 0.0014144159 0)
(0.055918597 0.00074959657 0)
(0.047595815 0.00028826693 0)
(0.044708798 0.00019884399 0)
(0.042412494 9.0523903e-05 0)
(0.041406638 6.0129365e-05 0)
(0.040707477 2.8979572e-05 0)
(0.040376991 1.801871e-05 0)
(0.040167797 8.6604135e-06 0)
(0.040068659 4.9939537e-06 0)
(0.040011053 2.2661317e-06 0)
(0.039985308 1.1728781e-06 0)
(0.039971973 4.4628447e-07 0)
(0.039967049 1.7388437e-07 0)
(0.03996518 1.4301936e-08 0)
(0.039965127 -2.9936251e-08 0)
(0.039965544 -4.8451894e-08 0)
(0.039966152 -4.3089129e-08 0)
(0.03996668 -3.5647114e-08 0)
(0.039967111 -2.5986555e-08 0)
(0.039967422 -1.8526539e-08 0)
(0.039967642 -1.2469035e-08 0)
(0.03996779 -8.2683161e-09 0)
(0.039967887 -5.2877057e-09 0)
(0.039967949 -3.3323922e-09 0)
(0.039967988 -2.0435806e-09 0)
(0.039968012 -1.235678e-09 0)
(0.039968026 -7.3059725e-10 0)
(0.039968035 -4.2479007e-10 0)
(0.03996804 -2.4063241e-10 0)
(0.039968042 -1.3296927e-10 0)
(0.039968044 -7.1432072e-11 0)
(0.039968045 -3.7266986e-11 0)
(0.039968045 -1.8587979e-11 0)
(0.039968045 -8.3937736e-12 0)
(0.039968046 -3.1631297e-12 0)
(0.039968046 -7.1651909e-13 0)
(0.039968046 1.6315655e-13 0)
(0.039968046 3.8527972e-13 0)
(0.039968046 3.0484498e-13 0)
(0.039968046 2.8091094e-13 0)
(0.039968046 4.1706084e-13 0)
(0.039968046 7.3819683e-13 0)
(0.039968046 7.8045146e-13 0)
(0.039968046 4.0792304e-13 0)
(0.039968046 -1.7119263e-13 0)
(0.039968046 -5.6168534e-13 0)
(0.039968046 -7.9758555e-13 0)
(0.039968046 -7.0477841e-13 0)
(0.039968046 -6.6780138e-13 0)
(0.039968046 -5.2658687e-13 0)
(0.039968046 -5.7910184e-13 0)
(0.039968046 -5.6201484e-13 0)
(0.039968046 -6.1734209e-13 0)
(0.039968046 -5.1878315e-13 0)
(0.039968046 -5.1831626e-13 0)
(0.039968046 -3.6610464e-13 0)
(0.039968046 -4.0166815e-13 0)
(0.039968046 -2.7179979e-13 0)
(0.039968046 -2.1975903e-13 0)
(0.039968046 -2.9337355e-14 0)
(0.039968046 -2.7815895e-14 0)
(0.039968046 4.4759988e-14 0)
(0.039968046 -7.8370701e-14 0)
(0.039968046 -1.1437415e-13 0)
(0.039968046 -3.2136582e-13 0)
(0.039968046 -4.5594081e-13 0)
(0.039968046 -6.7730416e-13 0)
(0.039968046 -6.5769044e-13 0)
(0.039968046 -7.0709197e-13 0)
(0.039968046 -4.9162565e-13 0)
(0.039968046 -3.269665e-13 0)
(0.039968046 -6.7645353e-14 0)
(0.039968046 7.1641e-14 0)
(0.039968046 2.5342562e-13 0)
(0.039968046 3.1193472e-13 0)
(0.039968046 4.0907777e-13 0)
(0.039968046 3.9480549e-13 0)
(0.039968046 4.2719371e-13 0)
(0.039968046 3.8456607e-13 0)
(0.039968046 4.0127719e-13 0)
(0.039968046 3.6583882e-13 0)
(0.039968046 3.8137711e-13 0)
(0.039968046 3.5484027e-13 0)
(0.039968046 3.6540819e-13 0)
(0.039968046 3.4660655e-13 0)
(0.039968046 3.4939574e-13 0)
(0.039968046 3.4320767e-13 0)
(0.039968046 3.4804738e-13 0)
(0.039968046 3.6058232e-13 0)
(0.039968046 3.4840895e-13 0)
(0.039968046 3.5848408e-13 0)
(0.039968046 3.5187821e-13 0)
(0.039968046 4.1152555e-13 0)
(0.039968046 4.0299864e-13 0)
(0.039968046 3.9613335e-13 0)
(0.039968046 2.8343386e-13 0)
(0.039968046 2.490754e-13 0)
(0.039968046 2.5479951e-13 0)
(0.039968046 3.9594546e-13 0)
(0.039968046 4.2472485e-13 0)
(0.039968046 4.6126682e-13 0)
(0.039968046 3.6031284e-13 0)
(0.039968046 3.3445012e-13 0)
(0.039968046 1.0128895e-13 0)
(0.039968046 -1.3311865e-13 0)
(0.039968046 -4.4445861e-13 0)
(0.039968046 -5.4915207e-13 0)
(0.039968046 -5.5547399e-13 0)
(0.039968046 -3.7795575e-13 0)
(0.039968046 -2.0931178e-13 0)
(0.039968046 1.7027997e-14 0)
(0.039968046 1.8726546e-13 0)
(0.039968046 4.7073771e-13 0)
(0.039968046 5.8771795e-13 0)
(0.039968046 6.452207e-13 0)
(0.039968046 4.4906454e-13 0)
(0.039968046 2.5330183e-13 0)
(0.039968046 -1.0217269e-14 0)
(0.039968046 -1.4452256e-13 0)
(0.039968046 -2.8008983e-13 0)
(0.039968046 -3.2356299e-13 0)
(0.039968046 -3.9948847e-13 0)
(0.039968046 -3.9076606e-13 0)
(0.039968046 -4.1721565e-13 0)
(0.039968046 -3.8095187e-13 0)
(0.039968046 -3.9218965e-13 0)
(0.039968046 -3.6202373e-13 0)
(0.039968046 -3.7808476e-13 0)
(0.039968046 -3.5846467e-13 0)
(0.039968046 -3.752475e-13 0)
(0.039968046 -3.5901918e-13 0)
(0.039968046 -3.7377238e-13 0)
(0.039968046 -3.5885782e-13 0)
(0.039968046 -3.7270843e-13 0)
(0.039968046 -3.5844491e-13 0)
(0.039968046 -3.680591e-13 0)
(0.039968046 -3.5225449e-13 0)
(0.039968046 -3.6090268e-13 0)
(0.039968046 -3.4948351e-13 0)
(0.039968046 -3.5774899e-13 0)
(0.039968046 -3.4103047e-13 0)
(0.039968046 -3.4087874e-13 0)
(0.039968046 -3.3493187e-13 0)
(0.039968046 -3.4141688e-13 0)
(0.039968046 -3.0485519e-13 0)
(0.039968046 -2.5073075e-13 0)
(0.039968046 -2.2144458e-13 0)
(0.039968046 -2.8731926e-13 0)
(0.039968046 -4.2717822e-13 0)
(0.039968046 -5.3080657e-13 0)
(0.039968046 -5.3953762e-13 0)
(0.039968046 -3.6288085e-13 0)
(0.039968046 -1.2818608e-13 0)
(0.039968046 1.01308e-13 0)
(0.039968046 2.5910716e-13 0)
(0.039968046 3.5783536e-13 0)
(0.039968046 4.0734779e-13 0)
(0.039968046 4.3158571e-13 0)
(0.039968046 4.3218974e-13 0)
(0.039968046 4.236792e-13 0)
(0.039968046 4.0832012e-13 0)
(0.039968046 3.9565496e-13 0)
(0.039968046 3.9675564e-13 0)
(0.039968046 3.848553e-13 0)
(0.039968046 3.9119568e-13 0)
(0.039968046 3.8340986e-13 0)
(0.039968046 3.9254213e-13 0)
(0.039968046 3.8692342e-13 0)
(0.039968046 3.9784896e-13 0)
(0.039968046 3.9211624e-13 0)
(0.039968046 4.014546e-13 0)
(0.039968046 3.9745333e-13 0)
(0.039968046 4.0607893e-13 0)
(0.039968046 4.0776982e-13 0)
(0.039968046 4.1325049e-13 0)
(0.039968046 4.1647453e-13 0)
(0.039968046 4.1595514e-13 0)
(0.039968046 4.2192982e-13 0)
(0.039968046 4.1879275e-13 0)
(0.039968046 4.177769e-13 0)
(0.039968046 4.0439776e-13 0)
(0.039968046 4.1137499e-13 0)
(0.039968046 4.2349339e-13 0)
(0.039968046 4.2966183e-13 0)
(0.039968046 3.8372553e-13 0)
(0.039968046 3.2344252e-13 0)
(0.039968046 2.8940479e-13 0)
(0.039968046 3.7343295e-13 0)
(0.039968046 5.0127629e-13 0)
(0.039968046 6.0420791e-13 0)
(0.039968046 5.7581292e-13 0)
(0.039968046 3.8515734e-13 0)
(0.039968046 1.0976351e-13 0)
(0.039968046 -1.1102117e-13 0)
(0.039968046 -3.0154171e-13 0)
(0.039968046 -4.017162e-13 0)
(0.039968046 -4.9624153e-13 0)
(0.039968046 -5.2817338e-13 0)
(0.039968046 -5.477842e-13 0)
(0.039968046 -5.2275094e-13 0)
(0.039968046 -5.045e-13 0)
(0.039968046 -4.6353839e-13 0)
(0.039968046 -4.354508e-13 0)
(0.039968046 -3.9883233e-13 0)
(0.039968046 -3.8127764e-13 0)
(0.039968046 -3.8423403e-13 0)
(0.039968046 -3.7974514e-13 0)
(0.039968046 -3.5299327e-13 0)
(0.039968046 -2.8051938e-13 0)
(0.039968046 -2.5469708e-13 0)
(0.039968046 -2.979367e-13 0)
(0.039968046 -4.450068e-13 0)
(0.039968046 -5.5748709e-13 0)
(0.039968046 -6.1296157e-13 0)
(0.039968046 -5.0266541e-13 0)
(0.039968046 -2.9559997e-13 0)
(0.039968046 -4.5301307e-14 0)
(0.039968046 1.4384399e-13 0)
(0.039968046 2.6593225e-13 0)
(0.039968046 2.9902475e-13 0)
(0.039968046 3.3511587e-13 0)
(0.039968046 4.0263561e-13 0)
(0.039968046 5.2838297e-13 0)
(0.039968046 6.0009589e-13 0)
(0.039968046 6.2988453e-13 0)
(0.039968046 5.3692693e-13 0)
(0.039968046 4.1537696e-13 0)
(0.039968046 2.1487547e-13 0)
(0.039968046 -1.8701612e-14 0)
(0.039968046 -2.9012441e-13 0)
(0.039968046 -4.9829528e-13 0)
(0.039968046 -5.3658467e-13 0)
(0.039968046 -4.3970429e-13 0)
(0.039968046 -2.6164375e-13 0)
(0.039968046 -1.0236313e-13 0)
(0.039968046 6.1336534e-14 0)
(0.039968046 2.6444117e-13 0)
(0.039968046 4.6839222e-13 0)
(0.039968046 6.1073231e-13 0)
(0.039968046 5.9800545e-13 0)
(0.039968046 4.4749698e-13 0)
(0.039968046 2.1777638e-13 0)
(0.039968046 -7.7614339e-15 0)
(0.039968046 -1.6913158e-13 0)
(0.039968046 -2.9726539e-13 0)
(0.039968046 -3.2647424e-13 0)
(0.039968046 -3.28077e-13 0)
(0.039968046 -3.174136e-13 0)
(0.039968046 -3.8256948e-13 0)
(0.039968046 -4.9287577e-13 0)
(0.039968046 -6.0260264e-13 0)
(0.039968046 -5.9814168e-13 0)
(0.039968046 -4.8160227e-13 0)
(0.039968046 -2.518273e-13 0)
(0.039968046 -3.9758234e-14 0)
(0.039968046 1.4446533e-13 0)
(0.039968046 2.5350374e-13 0)
(0.039968046 3.3354964e-13 0)
(0.039968046 3.7158344e-13 0)
(0.039968046 4.1285725e-13 0)
(0.039968046 4.1185205e-13 0)
(0.039968046 3.815517e-13 0)
(0.039968046 3.1370727e-13 0)
(0.039968046 3.0341893e-13 0)
(0.039968046 3.6056847e-13 0)
(0.039968046 4.7605265e-13 0)
(0.039968046 5.606575e-13 0)
(0.039968046 5.8021364e-13 0)
(0.039968046 5.0716894e-13 0)
(0.039968046 2.9542221e-13 0)
(0.039968046 1.2551255e-14 0)
(0.039968046 -2.9118778e-13 0)
(0.039968046 -5.0182396e-13 0)
(0.039968046 -5.52072e-13 0)
(0.039968046 -4.4949148e-13 0)
(0.039968046 -2.3968448e-13 0)
(0.039968046 -3.0127512e-14 0)
(0.039968046 1.4021415e-13 0)
(0.039968046 2.6863756e-13 0)
(0.039968046 3.3690937e-13 0)
(0.039968046 3.7273899e-13 0)
(0.039968046 3.7216283e-13 0)
(0.039968046 3.6764785e-13 0)
(0.039968046 3.5995363e-13 0)
(0.039968046 3.7017909e-13 0)
(0.039968046 3.6687592e-13 0)
(0.039968046 3.730255e-13 0)
(0.039968046 3.552389e-13 0)
(0.039968046 3.5672092e-13 0)
(0.039968046 3.7314871e-13 0)
(0.039968046 4.1265008e-13 0)
(0.039968046 3.7314169e-13 0)
(0.039968046 2.6806948e-13 0)
(0.039968046 2.5620587e-13 0)
(0.039968046 4.6110654e-13 0)
(0.039968046 5.8769592e-13 0)
(0.039968046 3.0971213e-13 0)
(0.36732384 0.14062829 0)
(0.29754389 0.025079375 0)
(0.1860793 0.0083694504 0)
(0.16132807 0.0041218652 0)
(0.13901859 0.0019375768 0)
(0.13040448 0.0011770259 0)
(0.12396461 0.00061113276 0)
(0.12095999 0.00037192117 0)
(0.1189454 0.0001972638 0)
(0.11794826 0.00011563613 0)
(0.11733081 6.0254005e-05 0)
(0.11702581 3.3410403e-05 0)
(0.11685065 1.6507994e-05 0)
(0.11676842 8.3905758e-06 0)
(0.1167257 3.6623932e-06 0)
(0.11670834 1.5208023e-06 0)
(0.1167012 3.9986781e-07 0)
(0.11669986 -2.7499534e-08 0)
(0.1167004 -1.9851344e-07 0)
(0.11670175 -2.1549548e-07 0)
(0.11670304 -1.9005541e-07 0)
(0.11670415 -1.458794e-07 0)
(0.11670497 -1.0635062e-07 0)
(0.11670557 -7.3358177e-08 0)
(0.11670597 -4.9257773e-08 0)
(0.11670624 -3.2004564e-08 0)
(0.11670642 -2.0383071e-08 0)
(0.11670653 -1.2671548e-08 0)
(0.11670659 -7.7446271e-09 0)
(0.11670664 -4.6383053e-09 0)
(0.11670666 -2.730033e-09 0)
(0.11670667 -1.5718705e-09 0)
(0.11670668 -8.8570834e-10 0)
(0.11670669 -4.8700203e-10 0)
(0.11670669 -2.6092098e-10 0)
(0.11670669 -1.3476479e-10 0)
(0.11670669 -6.5585366e-11 0)
(0.11670669 -2.9006328e-11 0)
(0.11670669 -1.0923724e-11 0)
(0.11670669 -2.8542639e-12 0)
(0.11670669 3.1415581e-13 0)
(0.11670669 1.194172e-12 0)
(0.11670669 1.344328e-12 0)
(0.11670669 1.7540268e-12 0)
(0.11670669 2.5801357e-12 0)
(0.11670669 2.6619051e-12 0)
(0.11670669 1.4785259e-12 0)
(0.11670669 -2.3039143e-13 0)
(0.11670669 -1.6193325e-12 0)
(0.11670669 -2.216351e-12 0)
(0.11670669 -2.1082832e-12 0)
(0.11670669 -1.9218339e-12 0)
(0.11670669 -1.6214491e-12 0)
(0.11670669 -1.7287588e-12 0)
(0.11670669 -1.7518538e-12 0)
(0.11670669 -1.8410298e-12 0)
(0.11670669 -1.5631527e-12 0)
(0.11670669 -1.4007656e-12 0)
(0.11670669 -1.1524502e-12 0)
(0.11670669 -1.1085918e-12 0)
(0.11670669 -8.8887375e-13 0)
(0.11670669 -6.1107637e-13 0)
(0.11670669 -1.5608964e-13 0)
(0.11670669 -6.0260506e-14 0)
(0.11670669 4.3275771e-14 0)
(0.11670669 -2.6818399e-13 0)
(0.11670669 -4.1853442e-13 0)
(0.11670669 -9.5294578e-13 0)
(0.11670669 -1.3686087e-12 0)
(0.11670669 -1.8937794e-12 0)
(0.11670669 -1.9934833e-12 0)
(0.11670669 -2.012714e-12 0)
(0.11670669 -1.5053504e-12 0)
(0.11670669 -9.3922504e-13 0)
(0.11670669 -2.7281947e-13 0)
(0.11670669 2.3425398e-13 0)
(0.11670669 6.7909356e-13 0)
(0.11670669 9.6565067e-13 0)
(0.11670669 1.1514286e-12 0)
(0.11670669 1.2190075e-12 0)
(0.11670669 1.2034997e-12 0)
(0.11670669 1.1894842e-12 0)
(0.11670669 1.1244364e-12 0)
(0.11670669 1.1368781e-12 0)
(0.11670669 1.0655306e-12 0)
(0.11670669 1.1076905e-12 0)
(0.11670669 1.0191774e-12 0)
(0.11670669 1.0856138e-12 0)
(0.11670669 9.7379853e-13 0)
(0.11670669 1.0775558e-12 0)
(0.11670669 9.7240134e-13 0)
(0.11670669 1.1312641e-12 0)
(0.11670669 9.7911831e-13 0)
(0.11670669 1.1259423e-12 0)
(0.11670669 9.8183298e-13 0)
(0.11670669 1.2828963e-12 0)
(0.11670669 1.1436833e-12 0)
(0.11670669 1.254728e-12 0)
(0.11670669 7.6619295e-13 0)
(0.11670669 8.2379742e-13 0)
(0.11670669 7.0843211e-13 0)
(0.11670669 1.2413694e-12 0)
(0.11670669 1.2180767e-12 0)
(0.11670669 1.4217493e-12 0)
(0.11670669 1.0102758e-12 0)
(0.11670669 1.0589552e-12 0)
(0.11670669 2.7591248e-13 0)
(0.11670669 -3.3611702e-13 0)
(0.11670669 -1.3659045e-12 0)
(0.11670669 -1.666822e-12 0)
(0.11670669 -1.7195135e-12 0)
(0.11670669 -1.1817065e-12 0)
(0.11670669 -7.0778242e-13 0)
(0.11670669 7.594092e-14 0)
(0.11670669 4.4461141e-13 0)
(0.11670669 1.4350747e-12 0)
(0.11670669 1.6830236e-12 0)
(0.11670669 1.9466843e-12 0)
(0.11670669 1.3000569e-12 0)
(0.11670669 7.9623038e-13 0)
(0.11670669 -4.2037547e-14 0)
(0.11670669 -3.7871799e-13 0)
(0.11670669 -8.2668161e-13 0)
(0.11670669 -9.2524964e-13 0)
(0.11670669 -1.1807439e-12 0)
(0.11670669 -1.1366746e-12 0)
(0.11670669 -1.2358295e-12 0)
(0.11670669 -1.1108052e-12 0)
(0.11670669 -1.1594924e-12 0)
(0.11670669 -1.0567278e-12 0)
(0.11670669 -1.1173291e-12 0)
(0.11670669 -1.0486175e-12 0)
(0.11670669 -1.1083123e-12 0)
(0.11670669 -1.0525265e-12 0)
(0.11670669 -1.1040417e-12 0)
(0.11670669 -1.0552564e-12 0)
(0.11670669 -1.1007407e-12 0)
(0.11670669 -1.0552251e-12 0)
(0.11670669 -1.0878601e-12 0)
(0.11670669 -1.038205e-12 0)
(0.11670669 -1.0661249e-12 0)
(0.11670669 -1.0306901e-12 0)
(0.11670669 -1.0578966e-12 0)
(0.11670669 -1.0073366e-12 0)
(0.11670669 -1.0066126e-12 0)
(0.11670669 -9.8680863e-13 0)
(0.11670669 -1.0089477e-12 0)
(0.11670669 -9.0951202e-13 0)
(0.11670669 -7.454938e-13 0)
(0.11670669 -6.4725287e-13 0)
(0.11670669 -8.4044919e-13 0)
(0.11670669 -1.2304e-12 0)
(0.11670669 -1.5688256e-12 0)
(0.11670669 -1.5979657e-12 0)
(0.11670669 -1.086249e-12 0)
(0.11670669 -4.1810178e-13 0)
(0.11670669 2.7201811e-13 0)
(0.11670669 7.3198594e-13 0)
(0.11670669 1.0311923e-12 0)
(0.11670669 1.1803912e-12 0)
(0.11670669 1.2523895e-12 0)
(0.11670669 1.2604195e-12 0)
(0.11670669 1.2376106e-12 0)
(0.11670669 1.1892819e-12 0)
(0.11670669 1.1580974e-12 0)
(0.11670669 1.1493919e-12 0)
(0.11670669 1.1222093e-12 0)
(0.11670669 1.1316654e-12 0)
(0.11670669 1.117941e-12 0)
(0.11670669 1.1340494e-12 0)
(0.11670669 1.1269854e-12 0)
(0.11670669 1.1492119e-12 0)
(0.11670669 1.1417256e-12 0)
(0.11670669 1.1599056e-12 0)
(0.11670669 1.1557162e-12 0)
(0.11670669 1.172969e-12 0)
(0.11670669 1.1829843e-12 0)
(0.11670669 1.1944822e-12 0)
(0.11670669 1.2045457e-12 0)
(0.11670669 1.2029663e-12 0)
(0.11670669 1.2195531e-12 0)
(0.11670669 1.2141074e-12 0)
(0.11670669 1.2109473e-12 0)
(0.11670669 1.1727544e-12 0)
(0.11670669 1.1941258e-12 0)
(0.11670669 1.224649e-12 0)
(0.11670669 1.2518225e-12 0)
(0.11670669 1.1165219e-12 0)
(0.11670669 9.3390089e-13 0)
(0.11670669 8.1766968e-13 0)
(0.11670669 1.0639629e-12 0)
(0.11670669 1.428815e-12 0)
(0.11670669 1.7607479e-12 0)
(0.11670669 1.6880398e-12 0)
(0.11670669 1.1284578e-12 0)
(0.11670669 3.4667244e-13 0)
(0.11670669 -3.2369878e-13 0)
(0.11670669 -8.6698012e-13 0)
(0.11670669 -1.1709786e-12 0)
(0.11670669 -1.4359431e-12 0)
(0.11670669 -1.5327337e-12 0)
(0.11670669 -1.5805793e-12 0)
(0.11670669 -1.5111683e-12 0)
(0.11670669 -1.4518578e-12 0)
(0.11670669 -1.3335472e-12 0)
(0.11670669 -1.2485854e-12 0)
(0.11670669 -1.1414151e-12 0)
(0.11670669 -1.0885274e-12 0)
(0.11670669 -1.0943653e-12 0)
(0.11670669 -1.0919077e-12 0)
(0.11670669 -1.0103981e-12 0)
(0.11670669 -8.0710944e-13 0)
(0.11670669 -7.1082663e-13 0)
(0.11670669 -8.3926142e-13 0)
(0.11670669 -1.2588621e-12 0)
(0.11670669 -1.6132249e-12 0)
(0.11670669 -1.7791232e-12 0)
(0.11670669 -1.4680585e-12 0)
(0.11670669 -8.6931729e-13 0)
(0.11670669 -1.4360947e-13 0)
(0.11670669 4.1863097e-13 0)
(0.11670669 7.7897743e-13 0)
(0.11670669 8.774939e-13 0)
(0.11670669 9.6966617e-13 0)
(0.11670669 1.1619951e-12 0)
(0.11670669 1.5179007e-12 0)
(0.11670669 1.7502205e-12 0)
(0.11670669 1.8285898e-12 0)
(0.11670669 1.5673016e-12 0)
(0.11670669 1.2138867e-12 0)
(0.11670669 6.3625164e-13 0)
(0.11670669 -2.5650177e-14 0)
(0.11670669 -8.4977852e-13 0)
(0.11670669 -1.4531881e-12 0)
(0.11670669 -1.5905724e-12 0)
(0.11670669 -1.3104517e-12 0)
(0.11670669 -7.8020583e-13 0)
(0.11670669 -3.3296525e-13 0)
(0.11670669 1.5215675e-13 0)
(0.11670669 7.2607869e-13 0)
(0.11670669 1.3514116e-12 0)
(0.11670669 1.7693559e-12 0)
(0.11670669 1.7462413e-12 0)
(0.11670669 1.3174364e-12 0)
(0.11670669 6.3861474e-13 0)
(0.11670669 -5.5596252e-15 0)
(0.11670669 -4.9692838e-13 0)
(0.11670669 -8.6832407e-13 0)
(0.11670669 -9.6587859e-13 0)
(0.11670669 -9.65452e-13 0)
(0.11670669 -9.2109644e-13 0)
(0.11670669 -1.0925214e-12 0)
(0.11670669 -1.420072e-12 0)
(0.11670669 -1.7427567e-12 0)
(0.11670669 -1.7423565e-12 0)
(0.11670669 -1.4051116e-12 0)
(0.11670669 -7.4607679e-13 0)
(0.11670669 -1.2143583e-13 0)
(0.11670669 4.17537e-13 0)
(0.11670669 7.4542304e-13 0)
(0.11670669 9.7744441e-13 0)
(0.11670669 1.0957201e-12 0)
(0.11670669 1.2118057e-12 0)
(0.11670669 1.2193965e-12 0)
(0.11670669 1.1233184e-12 0)
(0.11670669 9.3117962e-13 0)
(0.11670669 8.8123894e-13 0)
(0.11670669 1.0502469e-12 0)
(0.11670669 1.3841273e-12 0)
(0.11670669 1.6408748e-12 0)
(0.11670669 1.7051935e-12 0)
(0.11670669 1.4942209e-12 0)
(0.11670669 8.9827593e-13 0)
(0.11670669 8.259857e-14 0)
(0.11670669 -8.2566257e-13 0)
(0.11670669 -1.4485573e-12 0)
(0.11670669 -1.6214967e-12 0)
(0.11670669 -1.3317805e-12 0)
(0.11670669 -7.164346e-13 0)
(0.11670669 -1.1782068e-13 0)
(0.11670669 3.9908872e-13 0)
(0.11670669 7.7165736e-13 0)
(0.11670669 9.8575804e-13 0)
(0.11670669 1.0888055e-12 0)
(0.11670669 1.0907758e-12 0)
(0.11670669 1.0777943e-12 0)
(0.11670669 1.0588414e-12 0)
(0.11670669 1.0767631e-12 0)
(0.11670669 1.077435e-12 0)
(0.11670669 1.0863412e-12 0)
(0.11670669 1.0435077e-12 0)
(0.11670669 1.035995e-12 0)
(0.11670669 1.0886178e-12 0)
(0.11670669 1.199375e-12 0)
(0.11670669 1.1059902e-12 0)
(0.11670669 7.9330772e-13 0)
(0.11670669 7.254098e-13 0)
(0.11670669 1.2973559e-12 0)
(0.11670669 1.7415942e-12 0)
(0.11670669 9.7108263e-13 0)
(0.50390834 0.19019021 0)
(0.43847039 0.050431492 0)
(0.29767008 0.022055297 0)
(0.25944374 0.010780085 0)
(0.22598939 0.005562135 0)
(0.21213187 0.0032308029 0)
(0.20205719 0.0017732973 0)
(0.19716897 0.0010457427 0)
(0.19394744 0.00057679272 0)
(0.19230772 0.00033132692 0)
(0.19130242 0.00017832034 0)
(0.19079327 9.771839e-05 0)
(0.19050201 4.9916827e-05 0)
(0.1903612 2.5322526e-05 0)
(0.19028762 1.1617932e-05 0)
(0.19025609 4.9681107e-06 0)
(0.1902425 1.5964857e-06 0)
(0.19023894 1.7396603e-07 0)
(0.19023899 -3.9924528e-07 0)
(0.19024063 -5.2201047e-07 0)
(0.19024241 -4.845819e-07 0)
(0.19024402 -3.8461292e-07 0)
(0.19024524 -2.8475975e-07 0)
(0.19024615 -1.9928958e-07 0)
(0.19024677 -1.3491125e-07 0)
(0.19024719 -8.8449466e-08 0)
(0.19024746 -5.6693266e-08 0)
(0.19024763 -3.5507682e-08 0)
(0.19024774 -2.1833044e-08 0)
(0.1902478 -1.3165275e-08 0)
(0.19024784 -7.798953e-09 0)
(0.19024787 -4.5277376e-09 0)
(0.19024788 -2.5754409e-09 0)
(0.19024789 -1.4317307e-09 0)
(0.19024789 -7.761505e-10 0)
(0.19024789 -4.0724919e-10 0)
(0.1902479 -2.0392239e-10 0)
(0.1902479 -9.5182009e-11 0)
(0.1902479 -3.9754588e-11 0)
(0.1902479 -1.339447e-11 0)
(0.1902479 -1.9967102e-12 0)
(0.1902479 2.1267844e-12 0)
(0.1902479 3.3242954e-12 0)
(0.1902479 4.0349197e-12 0)
(0.1902479 4.8805235e-12 0)
(0.1902479 4.5493077e-12 0)
(0.1902479 2.5275922e-12 0)
(0.1902479 -4.3692617e-14 0)
(0.1902479 -2.1314017e-12 0)
(0.1902479 -2.9771176e-12 0)
(0.1902479 -2.8644786e-12 0)
(0.1902479 -2.5426543e-12 0)
(0.1902479 -2.1265348e-12 0)
(0.1902479 -2.2690804e-12 0)
(0.1902479 -2.3302963e-12 0)
(0.1902479 -2.4671088e-12 0)
(0.1902479 -2.1125601e-12 0)
(0.1902479 -1.8847971e-12 0)
(0.1902479 -1.5825926e-12 0)
(0.1902479 -1.4940514e-12 0)
(0.1902479 -1.2338313e-12 0)
(0.1902479 -8.5814458e-13 0)
(0.1902479 -2.7524149e-13 0)
(0.1902479 -1.1701418e-13 0)
(0.1902479 2.9208564e-14 0)
(0.1902479 -3.7774164e-13 0)
(0.1902479 -6.0546096e-13 0)
(0.1902479 -1.3573804e-12 0)
(0.1902479 -1.9536649e-12 0)
(0.1902479 -2.6411531e-12 0)
(0.1902479 -2.757997e-12 0)
(0.1902479 -2.6737709e-12 0)
(0.1902479 -1.9306495e-12 0)
(0.1902479 -1.1210161e-12 0)
(0.1902479 -2.3448355e-13 0)
(0.1902479 4.4579789e-13 0)
(0.1902479 9.9794679e-13 0)
(0.1902479 1.4001896e-12 0)
(0.1902479 1.630064e-12 0)
(0.1902479 1.7621435e-12 0)
(0.1902479 1.7200538e-12 0)
(0.1902479 1.735259e-12 0)
(0.1902479 1.6109751e-12 0)
(0.1902479 1.6530129e-12 0)
(0.1902479 1.511844e-12 0)
(0.1902479 1.5966719e-12 0)
(0.1902479 1.4307733e-12 0)
(0.1902479 1.5537195e-12 0)
(0.1902479 1.359354e-12 0)
(0.1902479 1.5415285e-12 0)
(0.1902479 1.3598536e-12 0)
(0.1902479 1.6272994e-12 0)
(0.1902479 1.3818163e-12 0)
(0.1902479 1.6431343e-12 0)
(0.1902479 1.4169694e-12 0)
(0.1902479 1.8877381e-12 0)
(0.1902479 1.6401094e-12 0)
(0.1902479 1.8378279e-12 0)
(0.1902479 1.1258686e-12 0)
(0.1902479 1.3007639e-12 0)
(0.1902479 1.1209111e-12 0)
(0.1902479 1.8858177e-12 0)
(0.1902479 1.7427323e-12 0)
(0.1902479 1.9823571e-12 0)
(0.1902479 1.2758404e-12 0)
(0.1902479 1.3071068e-12 0)
(0.1902479 1.7596182e-13 0)
(0.1902479 -5.92672e-13 0)
(0.1902479 -1.9859318e-12 0)
(0.1902479 -2.3101933e-12 0)
(0.1902479 -2.335576e-12 0)
(0.1902479 -1.529434e-12 0)
(0.1902479 -8.6335302e-13 0)
(0.1902479 2.6524583e-13 0)
(0.1902479 7.393139e-13 0)
(0.1902479 2.1212848e-12 0)
(0.1902479 2.3458852e-12 0)
(0.1902479 2.6526748e-12 0)
(0.1902479 1.6553974e-12 0)
(0.1902479 9.5731387e-13 0)
(0.1902479 -2.0638475e-13 0)
(0.1902479 -6.161006e-13 0)
(0.1902479 -1.2160538e-12 0)
(0.1902479 -1.3088008e-12 0)
(0.1902479 -1.6655807e-12 0)
(0.1902479 -1.6003137e-12 0)
(0.1902479 -1.7604259e-12 0)
(0.1902479 -1.5893547e-12 0)
(0.1902479 -1.6739951e-12 0)
(0.1902479 -1.5287522e-12 0)
(0.1902479 -1.6235163e-12 0)
(0.1902479 -1.5242595e-12 0)
(0.1902479 -1.6148852e-12 0)
(0.1902479 -1.5352726e-12 0)
(0.1902479 -1.6144648e-12 0)
(0.1902479 -1.545677e-12 0)
(0.1902479 -1.6145242e-12 0)
(0.1902479 -1.5506165e-12 0)
(0.1902479 -1.5998036e-12 0)
(0.1902479 -1.531252e-12 0)
(0.1902479 -1.5735499e-12 0)
(0.1902479 -1.523032e-12 0)
(0.1902479 -1.5598462e-12 0)
(0.1902479 -1.4851626e-12 0)
(0.1902479 -1.4822191e-12 0)
(0.1902479 -1.448313e-12 0)
(0.1902479 -1.4688464e-12 0)
(0.1902479 -1.3236873e-12 0)
(0.1902479 -1.1051691e-12 0)
(0.1902479 -9.9432145e-13 0)
(0.1902479 -1.2781517e-12 0)
(0.1902479 -1.7830181e-12 0)
(0.1902479 -2.176151e-12 0)
(0.1902479 -2.1217255e-12 0)
(0.1902479 -1.3569041e-12 0)
(0.1902479 -4.4443658e-13 0)
(0.1902479 4.7133267e-13 0)
(0.1902479 1.0511613e-12 0)
(0.1902479 1.4234701e-12 0)
(0.1902479 1.6080852e-12 0)
(0.1902479 1.7127924e-12 0)
(0.1902479 1.7419721e-12 0)
(0.1902479 1.7379735e-12 0)
(0.1902479 1.6857549e-12 0)
(0.1902479 1.6537551e-12 0)
(0.1902479 1.6403913e-12 0)
(0.1902479 1.605529e-12 0)
(0.1902479 1.6125879e-12 0)
(0.1902479 1.5942525e-12 0)
(0.1902479 1.6093279e-12 0)
(0.1902479 1.6008168e-12 0)
(0.1902479 1.6262294e-12 0)
(0.1902479 1.6189095e-12 0)
(0.1902479 1.6407058e-12 0)
(0.1902479 1.6400993e-12 0)
(0.1902479 1.660798e-12 0)
(0.1902479 1.6793459e-12 0)
(0.1902479 1.690592e-12 0)
(0.1902479 1.7079826e-12 0)
(0.1902479 1.7038235e-12 0)
(0.1902479 1.7306968e-12 0)
(0.1902479 1.7211014e-12 0)
(0.1902479 1.7190714e-12 0)
(0.1902479 1.6677249e-12 0)
(0.1902479 1.7062175e-12 0)
(0.1902479 1.744197e-12 0)
(0.1902479 1.7784505e-12 0)
(0.1902479 1.5877398e-12 0)
(0.1902479 1.3547447e-12 0)
(0.1902479 1.2211299e-12 0)
(0.1902479 1.5822911e-12 0)
(0.1902479 2.04421e-12 0)
(0.1902479 2.4269925e-12 0)
(0.1902479 2.2237347e-12 0)
(0.1902479 1.3989437e-12 0)
(0.1902479 3.3452822e-13 0)
(0.1902479 -5.4778804e-13 0)
(0.1902479 -1.2393093e-12 0)
(0.1902479 -1.6151277e-12 0)
(0.1902479 -1.9521717e-12 0)
(0.1902479 -2.0857732e-12 0)
(0.1902479 -2.1578266e-12 0)
(0.1902479 -2.0764502e-12 0)
(0.1902479 -1.998516e-12 0)
(0.1902479 -1.8415087e-12 0)
(0.1902479 -1.7253294e-12 0)
(0.1902479 -1.5906773e-12 0)
(0.1902479 -1.5294125e-12 0)
(0.1902479 -1.5536835e-12 0)
(0.1902479 -1.5518906e-12 0)
(0.1902479 -1.4416776e-12 0)
(0.1902479 -1.175063e-12 0)
(0.1902479 -1.0740194e-12 0)
(0.1902479 -1.271437e-12 0)
(0.1902479 -1.8293825e-12 0)
(0.1902479 -2.2484728e-12 0)
(0.1902479 -2.3787601e-12 0)
(0.1902479 -1.8623475e-12 0)
(0.1902479 -1.0109244e-12 0)
(0.1902479 -2.8832257e-14 0)
(0.1902479 7.0012571e-13 0)
(0.1902479 1.1486986e-12 0)
(0.1902479 1.2626902e-12 0)
(0.1902479 1.3979482e-12 0)
(0.1902479 1.679451e-12 0)
(0.1902479 2.1544139e-12 0)
(0.1902479 2.4203914e-12 0)
(0.1902479 2.4459711e-12 0)
(0.1902479 2.0077821e-12 0)
(0.1902479 1.4788854e-12 0)
(0.1902479 6.6961564e-13 0)
(0.1902479 -2.1918581e-13 0)
(0.1902479 -1.2969916e-12 0)
(0.1902479 -2.0280632e-12 0)
(0.1902479 -2.1132384e-12 0)
(0.1902479 -1.66587e-12 0)
(0.1902479 -9.151304e-13 0)
(0.1902479 -3.0808842e-13 0)
(0.1902479 3.5166497e-13 0)
(0.1902479 1.1103477e-12 0)
(0.1902479 1.9245683e-12 0)
(0.1902479 2.4212371e-12 0)
(0.1902479 2.3002406e-12 0)
(0.1902479 1.6606182e-12 0)
(0.1902479 7.185578e-13 0)
(0.1902479 -1.3853006e-13 0)
(0.1902479 -7.7598838e-13 0)
(0.1902479 -1.2448415e-12 0)
(0.1902479 -1.3553443e-12 0)
(0.1902479 -1.3623416e-12 0)
(0.1902479 -1.332982e-12 0)
(0.1902479 -1.5935704e-12 0)
(0.1902479 -2.0323747e-12 0)
(0.1902479 -2.4126992e-12 0)
(0.1902479 -2.3176275e-12 0)
(0.1902479 -1.7785761e-12 0)
(0.1902479 -8.511298e-13 0)
(0.1902479 -8.8781647e-15 0)
(0.1902479 6.9526027e-13 0)
(0.1902479 1.1088221e-12 0)
(0.1902479 1.4062761e-12 0)
(0.1902479 1.5638108e-12 0)
(0.1902479 1.7249688e-12 0)
(0.1902479 1.7329518e-12 0)
(0.1902479 1.5996476e-12 0)
(0.1902479 1.3514387e-12 0)
(0.1902479 1.3100315e-12 0)
(0.1902479 1.5573088e-12 0)
(0.1902479 1.9939178e-12 0)
(0.1902479 2.2844319e-12 0)
(0.1902479 2.291566e-12 0)
(0.1902479 1.913385e-12 0)
(0.1902479 1.053183e-12 0)
(0.1902479 -5.5453535e-14 0)
(0.1902479 -1.2399541e-12 0)
(0.1902479 -1.9898408e-12 0)
(0.1902479 -2.1222301e-12 0)
(0.1902479 -1.6620529e-12 0)
(0.1902479 -8.0422318e-13 0)
(0.1902479 -1.0876738e-14 0)
(0.1902479 6.6367998e-13 0)
(0.1902479 1.1380282e-12 0)
(0.1902479 1.4133833e-12 0)
(0.1902479 1.5504729e-12 0)
(0.1902479 1.5616001e-12 0)
(0.1902479 1.5560721e-12 0)
(0.1902479 1.5388635e-12 0)
(0.1902479 1.5634179e-12 0)
(0.1902479 1.5620826e-12 0)
(0.1902479 1.5674751e-12 0)
(0.1902479 1.5072154e-12 0)
(0.1902479 1.4997638e-12 0)
(0.1902479 1.5762611e-12 0)
(0.1902479 1.7165568e-12 0)
(0.1902479 1.5718755e-12 0)
(0.1902479 1.159207e-12 0)
(0.1902479 1.1171413e-12 0)
(0.1902479 1.8959647e-12 0)
(0.1902479 2.410292e-12 0)
(0.1902479 1.2899225e-12 0)
(0.59346672 0.21467329 0)
(0.54593347 0.075998392 0)
(0.39702192 0.039312278 0)
(0.34953974 0.019720542 0)
(0.30792187 0.01072673 0)
(0.28963523 0.0061583809 0)
(0.27651264 0.0034761936 0)
(0.26994405 0.002029113 0)
(0.26565503 0.0011409933 0)
(0.26342423 0.00065140451 0)
(0.26206335 0.00035632786 0)
(0.26136077 0.00019486775 0)
(0.26095907 0.00010128961 0)
(0.26076048 5.1588525e-05 0)
(0.260656 2.4314758e-05 0)
(0.26060945 1.0643668e-05 0)
(0.26058866 3.7609452e-06 0)
(0.26058217 7.1226211e-07 0)
(0.26058122 -5.4195177e-07 0)
(0.26058278 -8.8361779e-07 0)
(0.2605848 -8.6406845e-07 0)
(0.26058673 -7.0519279e-07 0)
(0.26058825 -5.2953475e-07 0)
(0.26058939 -3.7481735e-07 0)
(0.26059018 -2.5556477e-07 0)
(0.26059072 -1.6870446e-07 0)
(0.26059108 -1.087032e-07 0)
(0.2605913 -6.8452648e-08 0)
(0.26059144 -4.2285031e-08 0)
(0.26059153 -2.5622215e-08 0)
(0.26059159 -1.5250003e-08 0)
(0.26059162 -8.9033185e-09 0)
(0.26059163 -5.0958381e-09 0)
(0.26059165 -2.8528527e-09 0)
(0.26059165 -1.5583764e-09 0)
(0.26059165 -8.2593552e-10 0)
(0.26059166 -4.2039746e-10 0)
(0.26059166 -2.017756e-10 0)
(0.26059166 -8.8285271e-11 0)
(0.26059166 -3.265416e-11 0)
(0.26059166 -7.6220126e-12 0)
(0.26059166 2.2066492e-12 0)
(0.26059166 5.5867183e-12 0)
(0.26059166 6.8522417e-12 0)
(0.26059166 7.2782596e-12 0)
(0.26059166 5.9852573e-12 0)
(0.26059166 3.1350871e-12 0)
(0.26059166 1.7958643e-13 0)
(0.26059166 -2.0600337e-12 0)
(0.26059166 -2.9399329e-12 0)
(0.26059166 -2.7460134e-12 0)
(0.26059166 -2.3014337e-12 0)
(0.26059166 -1.7953068e-12 0)
(0.26059166 -1.9458313e-12 0)
(0.26059166 -2.0141372e-12 0)
(0.26059166 -2.2430893e-12 0)
(0.26059166 -1.9424815e-12 0)
(0.26059166 -1.8122332e-12 0)
(0.26059166 -1.4875029e-12 0)
(0.26059166 -1.3998179e-12 0)
(0.26059166 -1.1637535e-12 0)
(0.26059166 -9.1988906e-13 0)
(0.26059166 -4.0844116e-13 0)
(0.26059166 -2.7071297e-13 0)
(0.26059166 -3.3791728e-14 0)
(0.26059166 -4.2609338e-13 0)
(0.26059166 -6.5868834e-13 0)
(0.26059166 -1.5163725e-12 0)
(0.26059166 -2.1457354e-12 0)
(0.26059166 -2.8094842e-12 0)
(0.26059166 -2.7366363e-12 0)
(0.26059166 -2.4210436e-12 0)
(0.26059166 -1.4719026e-12 0)
(0.26059166 -6.2582065e-13 0)
(0.26059166 2.2858498e-13 0)
(0.26059166 7.7518972e-13 0)
(0.26059166 1.2020024e-12 0)
(0.26059166 1.5287412e-12 0)
(0.26059166 1.7440217e-12 0)
(0.26059166 1.9052504e-12 0)
(0.26059166 1.885679e-12 0)
(0.26059166 1.9207845e-12 0)
(0.26059166 1.7776298e-12 0)
(0.26059166 1.8114241e-12 0)
(0.26059166 1.6307029e-12 0)
(0.26059166 1.7095731e-12 0)
(0.26059166 1.5018241e-12 0)
(0.26059166 1.6291735e-12 0)
(0.26059166 1.3980884e-12 0)
(0.26059166 1.6097932e-12 0)
(0.26059166 1.399564e-12 0)
(0.26059166 1.7148387e-12 0)