/*--------------------------------*- C++ -*----------------------------------*\
| =========                 |                                                 |
| \\      /  F ield         | OpenFOAM: The Open Source CFD Toolbox           |
|  \\    /   O peration     | Version:  2206                                  |
|   \\  /    A nd           | Website:  www.openfoam.com                      |
|    \\/     M anipulation  |                                                 |
\*---------------------------------------------------------------------------*/
FoamFile
{
    version     2.0;
    format      ascii;
    arch        "LSB;label=32;scalar=64";
    class       surfaceScalarField;
    location    "17";
    object      phi;
}
// * * * * * * * * * * * * * * * * * * * * * * * * * * * * * * * * * * * * * //

dimensions      [0 3 -1 0 0 0 0];

oriented        oriented;

internalField   nonuniform List<scalar> 
29650
(
6.0867648e-05
0.00020579916
3.271817e-05
2.814949e-05
2.4599021e-05
8.1191626e-06
2.0417849e-05
4.1811839e-06
1.8552178e-05
1.865676e-06
1.73737e-05
1.1784771e-06
1.6781661e-05
5.9203516e-07
1.6412314e-05
3.6934378e-07
1.622082e-05
1.9149582e-07
1.6106685e-05
1.1414124e-07
1.6048258e-05
5.8436713e-08
1.6015474e-05
3.2791846e-08
1.5999542e-05
1.5937541e-08
1.5991376e-05
8.1681391e-09
1.5987889e-05
3.4876197e-09
1.598644e-05
1.4482257e-09
1.5986091e-05
3.4894882e-10
1.5986138e-05
-4.8726545e-11
1.5986349e-05
-2.1185559e-10
1.5986569e-05
-2.204866e-10
1.5986762e-05
-1.9268652e-10
1.5986908e-05
-1.4634276e-10
1.5987014e-05
-1.0621983e-10
1.5987087e-05
-7.2765811e-11
1.5987136e-05
-4.8657061e-11
1.5987167e-05
-3.1471773e-11
1.5987187e-05
-2.0011264e-11
1.59872e-05
-1.2426448e-11
1.5987208e-05
-7.5971812e-12
1.5987212e-05
-4.5502079e-12
1.5987215e-05
-2.6839435e-12
1.5987216e-05
-1.5540688e-12
1.5987217e-05
-8.8476372e-13
1.5987218e-05
-4.9098958e-13
1.5987218e-05
-2.6429989e-13
1.5987218e-05
-1.3678071e-13
1.5987218e-05
-6.8211822e-14
1.5987218e-05
-3.1972334e-14
1.5987218e-05
-1.3117364e-14
1.5987218e-05
-3.6557525e-15
1.5987218e-05
2.3823109e-16
1.5987218e-05
1.3479206e-15
1.5987218e-05
1.3357027e-15
1.5987218e-05
1.3840515e-15
1.5987218e-05
9.1232473e-16
1.5987218e-05
2.4987078e-16
1.5987218e-05
3.7548328e-18
1.5987218e-05
7.4208738e-16
1.5987218e-05
1.416318e-15
1.5987218e-05
2.1980259e-15
1.5987218e-05
2.1268669e-15
1.5987218e-05
2.2985627e-15
1.5987218e-05
2.1038376e-15
1.5987218e-05
2.3541133e-15
1.5987218e-05
2.3700231e-15
1.5987218e-05
2.4183958e-15
1.5987218e-05
2.2607295e-15
1.5987218e-05
2.5201297e-15
1.5987218e-05
2.1638874e-15
1.5987218e-05
2.376919e-15
1.5987218e-05
1.7831146e-15
1.5987218e-05
1.5514757e-15
1.5987218e-05
1.0509055e-15
1.5987218e-05
1.1027501e-15
1.5987218e-05
1.17209e-15
1.5987218e-05
1.4902665e-15
1.5987218e-05
1.705929e-15
1.5987218e-05
1.7029186e-15
1.5987218e-05
1.6380815e-15
1.5987218e-05
1.8180013e-15
1.5987218e-05
1.5397293e-15
1.5987218e-05
2.0761593e-15
1.5987218e-05
1.7195498e-15
1.5987218e-05
2.2200633e-15
1.5987218e-05
1.7971014e-15
1.5987218e-05
2.0597034e-15
1.5987218e-05
1.5224175e-15
1.5987218e-05
1.9890687e-15
1.5987218e-05
2.0023816e-15
1.5987218e-05
2.8668293e-15
1.5987218e-05
2.6327901e-15
1.5987218e-05
2.3903326e-15
1.5987218e-05
9.5450612e-16
1.5987218e-05
4.277031e-17
1.5987218e-05
-1.1009782e-15
1.5987218e-05
-1.392033e-15
1.5987218e-05
-1.9189323e-15
1.5987218e-05
-1.8852214e-15
1.5987218e-05
-2.1141635e-15
1.5987218e-05
-1.993714e-15
1.5987218e-05
-2.1189935e-15
1.5987218e-05
-2.0049671e-15
1.5987218e-05
-2.024531e-15
1.5987218e-05
-1.9018566e-15
1.5987218e-05
-1.9356504e-15
1.5987218e-05
-1.9604881e-15
1.5987218e-05
-2.0085599e-15
1.5987218e-05
-2.053967e-15
1.5987218e-05
-1.9908442e-15
1.5987218e-05
-1.9397357e-15
1.5987218e-05
-1.753623e-15
1.5987218e-05
-1.7806633e-15
1.5987218e-05
-1.8139269e-15
1.5987218e-05
-2.3224206e-15
1.5987218e-05
-2.6119571e-15
1.5987218e-05
-2.9389391e-15
1.5987218e-05
-1.9898218e-15
1.5987218e-05
-6.4150545e-16
1.5987218e-05
9.8853785e-16
1.5987218e-05
1.9002333e-15
1.5987218e-05
1.8140942e-15
1.5987218e-05
7.6226671e-16
1.5987218e-05
-6.3725326e-16
1.5987218e-05
-1.7585886e-15
1.5987218e-05
-1.8873768e-15
1.5987218e-05
-1.7581091e-15
1.5987218e-05
-5.2183602e-16
1.5987218e-05
5.6513726e-16
1.5987218e-05
1.7534964e-15
1.5987218e-05
2.3545203e-15
1.5987218e-05
2.3271624e-15
1.5987218e-05
1.5143504e-15
1.5987218e-05
5.9632886e-16
1.5987218e-05
-3.0931724e-16
1.5987218e-05
-8.7808317e-16
1.5987218e-05
-1.5932843e-15
1.5987218e-05
-2.1887773e-15
1.5987218e-05
-2.6999726e-15
1.5987218e-05
-2.6058221e-15
1.5987218e-05
-1.9353348e-15
1.5987218e-05
-7.6613767e-16
1.5987218e-05
2.9896302e-16
1.5987218e-05
1.0524653e-15
1.5987218e-05
1.5321465e-15
1.5987218e-05
1.7748349e-15
1.5987218e-05
1.9152134e-15
1.5987218e-05
1.9751097e-15
1.5987218e-05
1.9911891e-15
1.5987218e-05
1.9660322e-15
1.5987218e-05
1.9631779e-15
1.5987218e-05
1.9410386e-15
1.5987218e-05
1.9579856e-15
1.5987218e-05
1.9437893e-15
1.5987218e-05
1.9525886e-15
1.5987218e-05
1.9495478e-15
1.5987218e-05
1.9815418e-15
1.5987218e-05
1.9378724e-15
1.5987218e-05
1.8134928e-15
1.5987218e-05
1.7317944e-15
1.5987218e-05
1.8976886e-15
1.5987218e-05
2.3036044e-15
1.5987218e-05
2.7295544e-15
1.5987218e-05
2.675845e-15
1.5987218e-05
2.0141437e-15
1.5987218e-05
8.5999528e-16
1.5987218e-05
-2.8959928e-16
1.5987218e-05
-1.064797e-15
1.5987218e-05
-1.6011825e-15
1.5987218e-05
-1.8653415e-15
1.5987218e-05
-2.0570595e-15
1.5987218e-05
-2.1303807e-15
1.5987218e-05
-2.2033091e-15
1.5987218e-05
-2.2100645e-15
1.5987218e-05
-2.2086823e-15
1.5987218e-05
-2.1440726e-15
1.5987218e-05
-2.1570503e-15
1.5987218e-05
-2.1110629e-15
1.5987218e-05
-2.1326356e-15
1.5987218e-05
-2.1038049e-15
1.5987218e-05
-2.1337444e-15
1.5987218e-05
-2.1113859e-15
1.5987218e-05
-2.1401115e-15
1.5987218e-05
-2.1147045e-15
1.5987218e-05
-2.1372741e-15
1.5987218e-05
-2.1223365e-15
1.5987218e-05
-2.1448828e-15
1.5987218e-05
-2.142418e-15
1.5987218e-05
-2.1462321e-15
1.5987218e-05
-2.1407324e-15
1.5987218e-05
-2.1376682e-15
1.5987218e-05
-2.1378321e-15
1.5987218e-05
-2.1218786e-15
1.5987218e-05
-2.0867873e-15
1.5987218e-05
-2.0695754e-15
1.5987218e-05
-2.0580809e-15
1.5987218e-05
-2.0774957e-15
1.5987218e-05
-2.0519673e-15
1.5987218e-05
-2.0623253e-15
1.5987218e-05
-2.0549916e-15
1.5987218e-05
-1.9544672e-15
1.5987218e-05
-1.7696399e-15
1.5987218e-05
-1.6191266e-15
1.5987218e-05
-1.8800796e-15
1.5987218e-05
-2.3977921e-15
1.5987218e-05
-2.9857253e-15
1.5987218e-05
-3.0859778e-15
1.5987218e-05
-2.5027626e-15
1.5987218e-05
-1.209444e-15
1.5987218e-05
2.2225156e-17
1.5987218e-05
1.0750498e-15
1.5987218e-05
1.695169e-15
1.5987218e-05
2.1292344e-15
1.5987218e-05
2.249784e-15
1.5987218e-05
2.3084549e-15
1.5987218e-05
2.2051302e-15
1.5987218e-05
2.1370597e-15
1.5987218e-05
1.9970717e-15
1.5987218e-05
1.9823102e-15
1.5987218e-05
1.920908e-15
1.5987218e-05
1.9395518e-15
1.5987218e-05
1.9571719e-15
1.5987218e-05
2.0847111e-15
1.5987218e-05
2.1629302e-15
1.5987218e-05
2.1543693e-15
1.5987218e-05
1.9416912e-15
1.5987218e-05
1.8179705e-15
1.5987218e-05
1.9290646e-15
1.5987218e-05
2.3532728e-15
1.5987218e-05
2.7435512e-15
1.5987218e-05
2.7353704e-15
1.5987218e-05
1.9962395e-15
1.5987218e-05
9.2814167e-16
1.5987218e-05
-4.8053888e-17
1.5987218e-05
-7.4629263e-16
1.5987218e-05
-1.3821469e-15
1.5987218e-05
-2.0862644e-15
1.5987218e-05
-2.5880897e-15
1.5987218e-05
-2.8656825e-15
1.5987218e-05
-2.514844e-15
1.5987218e-05
-1.7230883e-15
1.5987218e-05
-4.3454956e-16
1.5987218e-05
9.2763638e-16
1.5987218e-05
1.9405665e-15
1.5987218e-05
2.4693717e-15
1.5987218e-05
2.0571839e-15
1.5987218e-05
1.146877e-15
1.5987218e-05
2.0174247e-16
1.5987218e-05
-5.4630284e-16
1.5987218e-05
-1.1281269e-15
1.5987218e-05
-1.8666266e-15
1.5987218e-05
-2.467368e-15
1.5987218e-05
-2.8241831e-15
1.5987218e-05
-2.4479943e-15
1.5987218e-05
-1.511576e-15
1.5987218e-05
-3.1959875e-16
1.5987218e-05
6.5239024e-16
1.5987218e-05
1.2606394e-15
1.5987218e-05
1.6694709e-15
1.5987218e-05
1.9020471e-15
1.5987218e-05
1.9576013e-15
1.5987218e-05
1.8469657e-15
1.5987218e-05
1.7387551e-15
1.5987218e-05
1.8831622e-15
1.5987218e-05
2.2525783e-15
1.5987218e-05
2.6375572e-15
1.5987218e-05
2.7170545e-15
1.5987218e-05
2.1645859e-15
1.5987218e-05
1.1030752e-15
1.5987218e-05
-2.663168e-17
1.5987218e-05
-8.6446795e-16
1.5987218e-05
-1.4157864e-15
1.5987218e-05
-1.7054362e-15
1.5987218e-05
-1.9089346e-15
1.5987218e-05
-2.0134189e-15
1.5987218e-05
-2.1148595e-15
1.5987218e-05
-2.0402172e-15
1.5987218e-05
-1.8976207e-15
1.5987218e-05
-1.7320593e-15
1.5987218e-05
-1.8806414e-15
1.5987218e-05
-2.3044045e-15
1.5987218e-05
-2.8234611e-15
1.5987218e-05
-2.9060489e-15
1.5987218e-05
-2.0558e-15
1.5987218e-05
-5.4546404e-16
1.5987218e-05
9.2042163e-16
1.5987218e-05
1.7401576e-15
1.5987218e-05
1.6232595e-15
1.5987218e-05
8.9446516e-16
1.5987218e-05
-5.0285013e-17
1.5987218e-05
-8.3597359e-16
1.5987218e-05
-1.3351988e-15
1.5987218e-05
-1.6859909e-15
1.5987218e-05
-1.8352081e-15
1.5987218e-05
-1.9217724e-15
1.5987218e-05
-1.9392108e-15
1.5987218e-05
-1.954701e-15
1.5987218e-05
-1.9474555e-15
1.5987218e-05
-1.9807667e-15
1.5987218e-05
-1.9424731e-15
1.5987218e-05
-1.942042e-15
1.5987218e-05
-1.8661052e-15
1.5987218e-05
-1.8983319e-15
1.5987218e-05
-1.9500004e-15
1.5987218e-05
-2.0153192e-15
1.5987218e-05
-1.7592193e-15
1.5987218e-05
-1.4944017e-15
1.5987218e-05
-1.809297e-15
1.5987218e-05
-2.6982356e-15
1.5987218e-05
-2.6225985e-15
-1.0198242e-15
0.00014027132
0.00033219464
9.2549244e-05
7.5871576e-05
7.0338073e-05
3.033035e-05
5.9620314e-05
1.4898956e-05
5.4019643e-05
7.4663531e-06
5.0795344e-05
4.4027745e-06
4.901105e-05
2.3763236e-06
4.7964744e-05
1.4156442e-06
4.7384384e-05
7.7185803e-07
4.7052233e-05
4.4629923e-07
4.6872682e-05
2.3799808e-07
4.677453e-05
1.3095274e-07
4.6724187e-05
6.6286951e-08
4.6698685e-05
3.3672518e-08
4.6686925e-05
1.5248636e-08
4.6681893e-05
6.4796379e-09
4.6680252e-05
1.988854e-09
4.6680058e-05
1.4418142e-10
4.6680445e-05
-5.9935804e-10
4.6680961e-05
-7.3766917e-10
4.6681443e-05
-6.745114e-10
4.6681826e-05
-5.2987958e-10
4.668211e-05
-3.9028164e-10
4.6682309e-05
-2.7163947e-10
4.6682444e-05
-1.8322024e-10
4.6682532e-05
-1.1970075e-10
4.6682589e-05
-7.6582616e-11
4.6682624e-05
-4.7892142e-11
4.6682646e-05
-2.9426535e-11
4.6682659e-05
-1.7729011e-11
4.6682667e-05
-1.0503471e-11
4.6682672e-05
-6.1097388e-12
4.6682674e-05
-3.4893096e-12
4.6682676e-05
-1.9466382e-12
4.6682676e-05
-1.0556261e-12
4.6682677e-05
-5.5337743e-13
4.6682677e-05
-2.7930781e-13
4.6682677e-05
-1.3338794e-13
4.6682677e-05
-5.6947495e-14
4.6682677e-05
-1.8775794e-14
4.6682677e-05
-1.9635006e-15
4.6682677e-05
3.5403236e-15
4.6682677e-05
4.7576928e-15
4.6682677e-05
4.8418409e-15
4.6682677e-05
3.9230433e-15
4.6682677e-05
2.0290164e-15
4.6682677e-05
1.0086544e-15
4.6682677e-05
1.7409638e-15
4.6682677e-05
3.6645306e-15
4.6682677e-05
4.3823525e-15
4.6682677e-05
4.8121705e-15
4.6682677e-05
4.7563656e-15
4.6682677e-05
4.7649691e-15
4.6682677e-05
5.1063494e-15
4.6682677e-05
5.3710514e-15
4.6682677e-05
5.238222e-15
4.6682677e-05
4.9207047e-15
4.6682677e-05
4.6795028e-15
4.6682677e-05
4.8261177e-15
4.6682677e-05
4.5091301e-15
4.6682677e-05
4.0067697e-15
4.6682677e-05
2.9327043e-15
4.6682677e-05
2.3547603e-15
4.6682677e-05
2.082267e-15
4.6682677e-05
2.7539742e-15
4.6682677e-05
3.3501199e-15
4.6682677e-05
4.0289983e-15
4.6682677e-05
3.9722379e-15
4.6682677e-05
3.9351179e-15
4.6682677e-05
3.6556547e-15
4.6682677e-05
3.7446273e-15
4.6682677e-05
3.9025515e-15
4.6682677e-05
3.9886076e-15
4.6682677e-05
4.264345e-15
4.6682677e-05
4.1819843e-15
4.6682677e-05
3.9993916e-15
4.6682677e-05
3.5642094e-15
4.6682677e-05
3.6712006e-15
4.6682677e-05
4.4881984e-15
4.6682677e-05
5.529356e-15
4.6682677e-05
5.9334598e-15
4.6682677e-05
4.866833e-15
4.6682677e-05
2.5081907e-15
4.6682677e-05
-3.567997e-17
4.6682677e-05
-1.8689484e-15
4.6682677e-05
-3.2002626e-15
4.6682677e-05
-3.6758264e-15
4.6682677e-05
-4.2335733e-15
4.6682677e-05
-4.1235064e-15
4.6682677e-05
-4.4431794e-15
4.6682677e-05
-4.1582152e-15
4.6682677e-05
-4.4439965e-15
4.6682677e-05
-3.9927197e-15
4.6682677e-05
-4.2043206e-15
4.6682677e-05
-3.8066891e-15
4.6682677e-05
-4.3139658e-15
4.6682677e-05
-4.005587e-15
4.6682677e-05
-4.501625e-15
4.6682677e-05
-3.9144935e-15
4.6682677e-05
-4.2927754e-15
4.6682677e-05
-3.5315257e-15
4.6682677e-05
-3.908843e-15
4.6682677e-05
-3.598355e-15
4.6682677e-05
-4.8181205e-15
4.6682677e-05
-5.3267632e-15
4.6682677e-05
-6.3365811e-15
4.6682677e-05
-4.2667191e-15
4.6682677e-05
-1.7126712e-15
4.6682677e-05
2.2803257e-15
4.6682677e-05
4.1625608e-15
4.6682677e-05
4.1668002e-15
4.6682677e-05
2.0086751e-15
4.6682677e-05
-1.0310748e-15
4.6682677e-05
-3.6747862e-15
4.6682677e-05
-3.910268e-15
4.6682677e-05
-3.9868111e-15
4.6682677e-05
-1.1633714e-15
4.6682677e-05
8.2299281e-16
4.6682677e-05
3.7238712e-15
4.6682677e-05
4.9147613e-15
4.6682677e-05
5.0515004e-15
4.6682677e-05
3.432594e-15
4.6682677e-05
1.4395867e-15
4.6682677e-05
-4.3727872e-16
4.6682677e-05
-1.6805537e-15
4.6682677e-05
-3.1130108e-15
4.6682677e-05
-4.4581511e-15
4.6682677e-05
-5.587336e-15
4.6682677e-05
-5.522973e-15
4.6682677e-05
-4.2459794e-15
4.6682677e-05
-1.7510084e-15
4.6682677e-05
4.1539039e-16
4.6682677e-05
2.1678586e-15
4.6682677e-05
3.1507021e-15
4.6682677e-05
3.7223327e-15
4.6682677e-05
4.0068886e-15
4.6682677e-05
4.1465561e-15
4.6682677e-05
4.1664476e-15
4.6682677e-05
4.1266802e-15
4.6682677e-05
4.09587e-15
4.6682677e-05
4.0574944e-15
4.6682677e-05
4.0737329e-15
4.6682677e-05
4.0617274e-15
4.6682677e-05
4.0613526e-15
4.6682677e-05
4.055152e-15
4.6682677e-05
4.1181307e-15
4.6682677e-05
4.0523578e-15
4.6682677e-05
3.8096718e-15
4.6682677e-05
3.5792594e-15
4.6682677e-05
3.8286182e-15
4.6682677e-05
4.7543001e-15
4.6682677e-05
5.6236149e-15
4.6682677e-05
5.6765696e-15
4.6682677e-05
4.410881e-15
4.6682677e-05
1.9563688e-15
4.6682677e-05
-3.8336655e-16
4.6682677e-05
-2.2026761e-15
4.6682677e-05
-3.3146337e-15
4.6682677e-05
-3.9034154e-15
4.6682677e-05
-4.2918852e-15
4.6682677e-05
-4.4286905e-15
4.6682677e-05
-4.5674937e-15
4.6682677e-05
-4.5887461e-15
4.6682677e-05
-4.5471848e-15
4.6682677e-05
-4.4761161e-15
4.6682677e-05
-4.4710314e-15
4.6682677e-05
-4.4006415e-15
4.6682677e-05
-4.417278e-15
4.6682677e-05
-4.3851095e-15
4.6682677e-05
-4.4191354e-15
4.6682677e-05
-4.4031456e-15
4.6682677e-05
-4.4333447e-15
4.6682677e-05
-4.4050109e-15
4.6682677e-05
-4.4250094e-15
4.6682677e-05
-4.4127289e-15
4.6682677e-05
-4.4350143e-15
4.6682677e-05
-4.4402895e-15
4.6682677e-05
-4.4357554e-15
4.6682677e-05
-4.4153248e-15
4.6682677e-05
-4.4173907e-15
4.6682677e-05
-4.3947549e-15
4.6682677e-05
-4.3891534e-15
4.6682677e-05
-4.2942883e-15
4.6682677e-05
-4.2649835e-15
4.6682677e-05
-4.2469359e-15
4.6682677e-05
-4.2602658e-15
4.6682677e-05
-4.2258113e-15
4.6682677e-05
-4.2026422e-15
4.6682677e-05
-4.2100884e-15
4.6682677e-05
-4.0208517e-15
4.6682677e-05
-3.5988195e-15
4.6682677e-05
-3.2592673e-15
4.6682677e-05
-3.6964041e-15
4.6682677e-05
-4.7117901e-15
4.6682677e-05
-6.0350411e-15
4.6682677e-05
-6.3998279e-15
4.6682677e-05
-5.2276063e-15
4.6682677e-05
-2.7189395e-15
4.6682677e-05
3.5528512e-17
4.6682677e-05
2.1948128e-15
4.6682677e-05
3.5601076e-15
4.6682677e-05
4.3938332e-15
4.6682677e-05
4.6941102e-15
4.6682677e-05
4.7853858e-15
4.6682677e-05
4.5952289e-15
4.6682677e-05
4.4185249e-15
4.6682677e-05
4.1260584e-15
4.6682677e-05
4.0418706e-15
4.6682677e-05
3.9111231e-15
4.6682677e-05
3.9219361e-15
4.6682677e-05
3.9346201e-15
4.6682677e-05
4.2068932e-15
4.6682677e-05
4.4150332e-15
4.6682677e-05
4.4520325e-15
4.6682677e-05
4.0064363e-15
4.6682677e-05
3.7002465e-15
4.6682677e-05
3.8518337e-15
4.6682677e-05
4.7186628e-15
4.6682677e-05
5.6330453e-15
4.6682677e-05
5.7263723e-15
4.6682677e-05
4.2628687e-15
4.6682677e-05
2.0375747e-15
4.6682677e-05
-6.3438452e-17
4.6682677e-05
-1.5052076e-15
4.6682677e-05
-2.8586975e-15
4.6682677e-05
-4.2875427e-15
4.6682677e-05
-5.4802463e-15
4.6682677e-05
-6.0347115e-15
4.6682677e-05
-5.4117321e-15
4.6682677e-05
-3.8646843e-15
4.6682677e-05
-1.1260036e-15
4.6682677e-05
1.5990789e-15
4.6682677e-05
4.0664882e-15
4.6682677e-05
5.1764896e-15
4.6682677e-05
4.461546e-15
4.6682677e-05
2.6505762e-15
4.6682677e-05
5.1340123e-16
4.6682677e-05
-9.7661997e-16
4.6682677e-05
-2.2674481e-15
4.6682677e-05
-3.7003174e-15
4.6682677e-05
-5.1472483e-15
4.6682677e-05
-5.9266444e-15
4.6682677e-05
-5.2639315e-15
4.6682677e-05
-3.4233953e-15
4.6682677e-05
-8.1562494e-16
4.6682677e-05
1.1943648e-15
4.6682677e-05
2.606989e-15
4.6682677e-05
3.4665872e-15
4.6682677e-05
3.9708582e-15
4.6682677e-05
4.1209786e-15
4.6682677e-05
3.8902034e-15
4.6682677e-05
3.6276987e-15
4.6682677e-05
3.8555673e-15
4.6682677e-05
4.5971212e-15
4.6682677e-05
5.4619479e-15
4.6682677e-05
5.7373097e-15
4.6682677e-05
4.6499294e-15
4.6682677e-05
2.5073563e-15
4.6682677e-05
1.0319016e-16
4.6682677e-05
-1.7086494e-15
4.6682677e-05
-2.9093682e-15
4.6682677e-05
-3.5495665e-15
4.6682677e-05
-3.9683564e-15
4.6682677e-05
-4.2170416e-15
4.6682677e-05
-4.4067226e-15
4.6682677e-05
-4.3298193e-15
4.6682677e-05
-3.989101e-15
4.6682677e-05
-3.6403035e-15
4.6682677e-05
-3.8464169e-15
4.6682677e-05
-4.7375001e-15
4.6682677e-05
-5.8669033e-15
4.6682677e-05
-6.152651e-15
4.6682677e-05
-4.5548868e-15
4.6682677e-05
-1.4741067e-15
4.6682677e-05
1.8223526e-15
4.6682677e-05
3.6316625e-15
4.6682677e-05
3.5749429e-15
4.6682677e-05
2.1142565e-15
4.6682677e-05
3.3199204e-17
4.6682677e-05
-1.5513188e-15
4.6682677e-05
-2.7340685e-15
4.6682677e-05
-3.447896e-15
4.6682677e-05
-3.8291993e-15
4.6682677e-05
-4.0047672e-15
4.6682677e-05
-4.0537485e-15
4.6682677e-05
-4.0940145e-15
4.6682677e-05
-4.0943675e-15
4.6682677e-05
-4.1202716e-15
4.6682677e-05
-4.0870558e-15
4.6682677e-05
-4.0485772e-15
4.6682677e-05
-3.9225595e-15
4.6682677e-05
-3.9275008e-15
4.6682677e-05
-4.0734095e-15
4.6682677e-05
-4.2213786e-15
4.6682677e-05
-3.7667926e-15
4.6682677e-05
-3.0994662e-15
4.6682677e-05
-3.5955806e-15
4.6682677e-05
-5.435036e-15
4.6682677e-05
-5.7288638e-15
-2.5638469e-15
0.00019469214
0.0004041693
0.00014360962
0.0001269541
0.00011230147
6.1638489e-05
9.6619294e-05
3.0581132e-05
8.7762221e-05
1.6323424e-05
8.2755406e-05
9.4095883e-06
7.9871701e-05
5.2600278e-06
7.8206034e-05
3.0813099e-06
7.7256668e-05
1.721219e-06
7.6718194e-05
9.8476758e-07
7.6420462e-05
5.3572611e-07
7.6258218e-05
2.931947e-07
7.6172993e-05
1.5151179e-07
7.61296e-05
7.7066138e-08
7.6108851e-05
3.5998345e-08
7.6099695e-05
1.5636102e-08
7.6096324e-05
5.3603893e-09
7.6095587e-05
8.814941e-10
7.6095937e-05
-9.4826854e-10
7.6096611e-05
-1.4120917e-09
7.609729e-05
-1.3537923e-09
7.6097854e-05
-1.0933852e-09
7.609828e-05
-8.1650462e-10
7.6098584e-05
-5.752397e-10
7.6098791e-05
-3.9093231e-10
7.6098929e-05
-2.5729109e-10
7.6099018e-05
-1.6543798e-10
7.6099074e-05
-1.0399124e-10
7.6099108e-05
-6.4151259e-11
7.609913e-05
-3.8816844e-11
7.6099142e-05
-2.3078401e-11
7.609915e-05
-1.3467485e-11
7.6099154e-05
-7.7121679e-12
7.6099156e-05
-4.319029e-12
7.6099157e-05
-2.3574748e-12
7.6099158e-05
-1.2469659e-12
7.6099158e-05
-6.3549614e-13
7.6099159e-05
-3.0711341e-13
7.6099159e-05
-1.3588826e-13
7.6099159e-05
-5.0208184e-14
7.6099159e-05
-1.0796401e-14
7.6099159e-05
4.813066e-15
7.6099159e-05
9.3802663e-15
7.6099159e-05
9.8511941e-15
7.6099159e-05
7.8158141e-15
7.6099159e-05
5.0729089e-15
7.6099159e-05
3.5660661e-15
7.6099159e-05
4.2069872e-15
7.6099159e-05
5.343736e-15
7.6099159e-05
6.0942472e-15
7.6099159e-05
5.5848175e-15
7.6099159e-05
5.3239516e-15
7.6099159e-05
4.7626886e-15
7.6099159e-05
5.0801185e-15
7.6099159e-05
5.1440931e-15
7.6099159e-05
5.2120228e-15
7.6099159e-05
5.0296787e-15
7.6099159e-05
5.3917805e-15
7.6099159e-05
4.9160639e-15
7.6099159e-05
5.0789593e-15
7.6099159e-05
4.0855419e-15
7.6099159e-05
3.448516e-15
7.6099159e-05
2.6282734e-15
7.6099159e-05
2.6292525e-15
7.6099159e-05
2.9794321e-15
7.6099159e-05
3.5997378e-15
7.6099159e-05
4.1007217e-15
7.6099159e-05
4.0295432e-15
7.6099159e-05
3.9209705e-15
7.6099159e-05
4.0478906e-15
7.6099159e-05
3.6181086e-15
7.6099159e-05
4.4279439e-15
7.6099159e-05
3.9117209e-15
7.6099159e-05
4.6900527e-15
7.6099159e-05
4.0025274e-15
7.6099159e-05
4.3058024e-15
7.6099159e-05
3.4273866e-15
7.6099159e-05
4.1888557e-15
7.6099159e-05
4.4731986e-15
7.6099159e-05
5.9087e-15
7.6099159e-05
5.3619894e-15
7.6099159e-05
4.4561217e-15
7.6099159e-05
1.5470061e-15
7.6099159e-05
-4.9219587e-16
7.6099159e-05
-2.5219426e-15
7.6099159e-05
-3.2627704e-15
7.6099159e-05
-4.0166377e-15
7.6099159e-05
-4.1086881e-15
7.6099159e-05
-4.359268e-15
7.6099159e-05
-4.3280368e-15
7.6099159e-05
-4.3994873e-15
7.6099159e-05
-4.3824814e-15
7.6099159e-05
-4.2281691e-15
7.6099159e-05
-4.1870357e-15
7.6099159e-05
-4.0886844e-15
7.6099159e-05
-4.376596e-15
7.6099159e-05
-4.2709364e-15
7.6099159e-05
-4.5739459e-15
7.6099159e-05
-4.1972516e-15
7.6099159e-05
-4.3568088e-15
7.6099159e-05
-3.7993694e-15
7.6099159e-05
-4.0949237e-15
7.6099159e-05
-3.9977392e-15
7.6099159e-05
-5.1151679e-15
7.6099159e-05
-5.4083654e-15
7.6099159e-05
-5.914127e-15
7.6099159e-05
-3.6151068e-15
7.6099159e-05
-9.5303802e-16
7.6099159e-05
2.5171534e-15
7.6099159e-05
3.9694777e-15
7.6099159e-05
3.5300899e-15
7.6099159e-05
1.2447685e-15
7.6099159e-05
-1.609589e-15
7.6099159e-05
-3.8208485e-15
7.6099159e-05
-3.6570623e-15
7.6099159e-05
-3.3187212e-15
7.6099159e-05
-4.9199958e-16
7.6099159e-05
1.5668137e-15
7.6099159e-05
4.0656551e-15
7.6099159e-05
4.9435103e-15
7.6099159e-05
4.6158153e-15
7.6099159e-05
2.7766271e-15
7.6099159e-05
7.8593481e-16
7.6099159e-05
-1.0630203e-15
7.6099159e-05
-2.2170115e-15
7.6099159e-05
-3.6140496e-15
7.6099159e-05
-4.7643076e-15
7.6099159e-05
-5.6652177e-15
7.6099159e-05
-5.1688864e-15
7.6099159e-05
-3.6008123e-15
7.6099159e-05
-1.104968e-15
7.6099159e-05
1.0333012e-15
7.6099159e-05
2.5480543e-15
7.6099159e-05
3.4496307e-15
7.6099159e-05
3.8979684e-15
7.6099159e-05
4.1683621e-15
7.6099159e-05
4.2693857e-15
7.6099159e-05
4.3262081e-15
7.6099159e-05
4.2778202e-15
7.6099159e-05
4.2816261e-15
7.6099159e-05
4.2305908e-15
7.6099159e-05
4.2721437e-15
7.6099159e-05
4.235363e-15
7.6099159e-05
4.2569701e-15
7.6099159e-05
4.2346821e-15
7.6099159e-05
4.2989987e-15
7.6099159e-05
4.1842911e-15
7.6099159e-05
3.9326281e-15
7.6099159e-05
3.7663222e-15
7.6099159e-05
4.1374591e-15
7.6099159e-05
4.9960992e-15
7.6099159e-05
5.7426867e-15
7.6099159e-05
5.3615311e-15
7.6099159e-05
3.817145e-15
7.6099159e-05
1.3295137e-15
7.6099159e-05
-9.7029749e-16
7.6099159e-05
-2.5318839e-15
7.6099159e-05
-3.5178862e-15
7.6099159e-05
-3.9592045e-15
7.6099159e-05
-4.2959526e-15
7.6099159e-05
-4.4332246e-15
7.6099159e-05
-4.6048085e-15
7.6099159e-05
-4.6576242e-15
7.6099159e-05
-4.6864693e-15
7.6099159e-05
-4.5977354e-15
7.6099159e-05
-4.6487676e-15
7.6099159e-05
-4.5542932e-15
7.6099159e-05
-4.6075222e-15
7.6099159e-05
-4.5362908e-15
7.6099159e-05
-4.6046968e-15
7.6099159e-05
-4.5488948e-15
7.6099159e-05
-4.621455e-15
7.6099159e-05
-4.5588829e-15
7.6099159e-05
-4.6280714e-15
7.6099159e-05
-4.5824696e-15
7.6099159e-05
-4.6500668e-15
7.6099159e-05
-4.6194602e-15
7.6099159e-05
-4.6467545e-15
7.6099159e-05
-4.5999697e-15
7.6099159e-05
-4.6248919e-15
7.6099159e-05
-4.580221e-15
7.6099159e-05
-4.58847e-15
7.6099159e-05
-4.4721511e-15
7.6099159e-05
-4.4822112e-15
7.6099159e-05
-4.4411351e-15
7.6099159e-05
-4.4913683e-15
7.6099159e-05
-4.4258311e-15
7.6099159e-05
-4.443322e-15
7.6099159e-05
-4.399871e-15
7.6099159e-05
-4.191089e-15
7.6099159e-05
-3.7817674e-15
7.6099159e-05
-3.559301e-15
7.6099159e-05
-4.1752281e-15
7.6099159e-05
-5.2746312e-15
7.6099159e-05
-6.3701746e-15
7.6099159e-05
-6.4054783e-15
7.6099159e-05
-4.9108572e-15
7.6099159e-05
-2.2564358e-15
7.6099159e-05
2.5740751e-16
7.6099159e-05
2.3165734e-15
7.6099159e-05
3.5192981e-15
7.6099159e-05
4.3752974e-15
7.6099159e-05
4.619473e-15
7.6099159e-05
4.781268e-15
7.6099159e-05
4.5752565e-15
7.6099159e-05
4.4856827e-15
7.6099159e-05
4.2181182e-15
7.6099159e-05
4.2096375e-15
7.6099159e-05
4.105915e-15
7.6099159e-05
4.1828755e-15
7.6099159e-05
4.2508742e-15
7.6099159e-05
4.5584169e-15
7.6099159e-05
4.738894e-15
7.6099159e-05
4.7182114e-15
7.6099159e-05
4.2591104e-15
7.6099159e-05
4.0145928e-15
7.6099159e-05
4.2616988e-15
7.6099159e-05
5.0907857e-15
7.6099159e-05
5.7545931e-15
7.6099159e-05
5.4503129e-15
7.6099159e-05
3.7140317e-15
7.6099159e-05
1.444645e-15
7.6099159e-05
-5.458765e-16
7.6099159e-05
-1.9161682e-15
7.6099159e-05
-3.1946214e-15
7.6099159e-05
-4.5922152e-15
7.6099159e-05
-5.5463177e-15
7.6099159e-05
-5.8806888e-15
7.6099159e-05
-4.9136878e-15
7.6099159e-05
-3.1672692e-15
7.6099159e-05
-3.9401059e-16
7.6099159e-05
2.2921234e-15
7.6099159e-05
4.3063546e-15
7.6099159e-05
5.0385389e-15
7.6099159e-05
3.9300254e-15
7.6099159e-05
1.9669639e-15
7.6099159e-05
-2.9728356e-17
7.6099159e-05
-1.4935546e-15
7.6099159e-05
-2.6878849e-15
7.6099159e-05
-4.1263898e-15
7.6099159e-05
-5.3159147e-15
7.6099159e-05
-5.8379295e-15
7.6099159e-05
-4.7863043e-15
7.6099159e-05
-2.7536847e-15
7.6099159e-05
-2.4004669e-16
7.6099159e-05
1.6763863e-15
7.6099159e-05
2.8784346e-15
7.6099159e-05
3.6510529e-15
7.6099159e-05
4.0482371e-15
7.6099159e-05
4.1353957e-15
7.6099159e-05
3.8995792e-15
7.6099159e-05
3.7316648e-15
7.6099159e-05
4.0886483e-15
7.6099159e-05
4.8717959e-15
7.6099159e-05
5.5813507e-15
7.6099159e-05
5.5075064e-15
7.6099159e-05
4.1294435e-15
7.6099159e-05
1.8540376e-15
7.6099159e-05
-4.9349747e-16
7.6099159e-05
-2.1433621e-15
7.6099159e-05
-3.1959457e-15
7.6099159e-05
-3.7132209e-15
7.6099159e-05
-4.086986e-15
7.6099159e-05
-4.2946387e-15
7.6099159e-05
-4.4899177e-15
7.6099159e-05
-4.3421506e-15
7.6099159e-05
-4.0371507e-15
7.6099159e-05
-3.7649253e-15
7.6099159e-05
-4.1111191e-15
7.6099159e-05
-5.0141552e-15
7.6099159e-05
-5.9537077e-15
7.6099159e-05
-5.8308778e-15
7.6099159e-05
-3.8480948e-15
7.6099159e-05
-6.7998154e-16
7.6099159e-05
2.2940681e-15
7.6099159e-05
3.6671186e-15
7.6099159e-05
3.1342034e-15
7.6099159e-05
1.4487262e-15
7.6099159e-05
-6.0120916e-16
7.6099159e-05
-2.1409074e-15
7.6099159e-05
-3.1077631e-15
7.6099159e-05
-3.7120749e-15
7.6099159e-05
-3.9729788e-15
7.6099159e-05
-4.123665e-15
7.6099159e-05
-4.1718195e-15
7.6099159e-05
-4.2216085e-15
7.6099159e-05
-4.2241355e-15
7.6099159e-05
-4.27376e-15
7.6099159e-05
-4.2022408e-15
7.6099159e-05
-4.17244e-15
7.6099159e-05
-4.0252957e-15
7.6099159e-05
-4.0760425e-15
7.6099159e-05
-4.207481e-15
7.6099159e-05
-4.3116252e-15
7.6099159e-05
-3.7682516e-15
7.6099159e-05
-3.2460082e-15
7.6099159e-05
-3.9927852e-15
7.6099159e-05
-5.7566007e-15
7.6099159e-05
-5.3871359e-15
-2.0573049e-15
0.00023312986
0.00043770624
0.00018548527
0.0001745987
0.00015018421
9.6939535e-05
0.0001310242
4.9741132e-05
0.00011965162
2.7695994e-05
0.0001131446
1.5916606e-05
0.00010931814
9.0864847e-06
0.00010710183
5.2976125e-06
0.0001058215
3.0015442e-06
0.00010509347
1.7127825e-06
0.00010468612
9.430611e-07
0.00010446306
5.1624753e-07
0.00010434425
2.7032458e-07
0.00010428311
1.3820265e-07
0.00010425319
6.5919646e-08
0.00010423959
2.9237227e-08
0.0001042342
1.075335e-08
0.00010423268
2.4044162e-09
0.00010423281
-1.0817732e-09
0.00010423352
-2.1176036e-09
0.00010423431
-2.14548e-09
0.000104235
-1.7804767e-09
0.00010423553
-1.3487367e-09
0.00010423592
-9.6065118e-10
0.00010423618
-6.5762652e-10
0.00010423636
-4.3560261e-10
0.00010423648
-2.8144375e-10
0.00010423655
-1.7772098e-10
0.0001042366
-1.100586e-10
0.00010423662
-6.6855231e-11
0.00010423664
-3.988594e-11
0.00010423665
-2.3356092e-11
0.00010423666
-1.3419886e-11
0.00010423666
-7.5480863e-12
0.00010423666
-4.1431293e-12
0.00010423666
-2.2080906e-12
0.00010423666
-1.1347833e-12
0.00010423666
-5.5522058e-13
0.00010423666
-2.5183858e-13
0.00010423666
-9.9484827e-14
0.00010423666
-2.7040017e-14
0.00010423666
3.9394069e-15
0.00010423666
1.4848351e-14
0.00010423666
1.6050165e-14
0.00010423666
1.2862133e-14
0.00010423666
8.938822e-15
0.00010423666
7.1412471e-15
0.00010423666
7.3215343e-15
0.00010423666
8.4048e-15
0.00010423666
7.9752705e-15
0.00010423666
6.9004735e-15
0.00010423666
5.5329539e-15
0.00010423666
4.7407334e-15
0.00010423666
4.6580243e-15
0.00010423666
4.698271e-15
0.00010423666
4.5507246e-15
0.00010423666
4.6049736e-15
0.00010423666
4.7306633e-15
0.00010423666
4.8619443e-15
0.00010423666
4.5399498e-15
0.00010423666
4.1830041e-15
0.00010423666
3.5629876e-15
0.00010423666
3.458819e-15
0.00010423666
3.3493916e-15
0.00010423666
3.9647548e-15
0.00010423666
4.2502076e-15
0.00010423666
4.6342915e-15
0.00010423666
4.1640453e-15
0.00010423666
3.9698771e-15
0.00010423666
3.664368e-15
0.00010423666
3.6940308e-15
0.00010423666
3.9949826e-15
0.00010423666
3.8774392e-15
0.00010423666
4.0953103e-15
0.00010423666
3.7389351e-15
0.00010423666
3.598034e-15
0.00010423666
3.3213924e-15
0.00010423666
3.8389217e-15
0.00010423666
4.5081332e-15
0.00010423666
5.0012534e-15
0.00010423666
4.1431865e-15
0.00010423666
2.3380285e-15
0.00010423666
-9.7452729e-17
0.00010423666
-1.8431519e-15
0.00010423666
-2.8480162e-15
0.00010423666
-3.3899479e-15
0.00010423666
-3.3489997e-15
0.00010423666
-3.6435989e-15
0.00010423666
-3.4189765e-15
0.00010423666
-3.7988397e-15
0.00010423666
-3.5365783e-15
0.00010423666
-3.9309771e-15
0.00010423666
-3.4371652e-15
0.00010423666
-3.8212623e-15
0.00010423666
-3.4550879e-15
0.00010423666
-4.1383831e-15
0.00010423666
-3.6726198e-15
0.00010423666
-4.30227e-15
0.00010423666
-3.5316908e-15
0.00010423666
-4.1635379e-15
0.00010423666
-3.3949797e-15
0.00010423666
-4.2241662e-15
0.00010423666
-3.9740532e-15
0.00010423666
-5.0955668e-15
0.00010423666
-4.490401e-15
0.00010423666
-4.321208e-15
0.00010423666
-1.3093523e-15
0.00010423666
6.5069103e-16
0.00010423666
3.3092031e-15
0.00010423666
3.261849e-15
0.00010423666
1.9078139e-15
0.00010423666
-4.1518405e-16
0.00010423666
-2.5880789e-15
0.00010423666
-3.8432671e-15
0.00010423666
-2.3157004e-15
0.00010423666
-1.76384e-15
0.00010423666
1.3256857e-15
0.00010423666
2.613264e-15
0.00010423666
4.4733414e-15
0.00010423666
4.1622759e-15
0.00010423666
3.106653e-15
0.00010423666
9.4929227e-16
0.00010423666
-8.0852344e-16
0.00010423666
-2.2373139e-15
0.00010423666
-3.0240239e-15
0.00010423666
-4.0359869e-15