/*--------------------------------*- C++ -*----------------------------------*\
| =========                 |                                                 |
| \\      /  F ield         | OpenFOAM: The Open Source CFD Toolbox           |
|  \\    /   O peration     | Version:  2206                                  |
|   \\  /    A nd           | Website:  www.openfoam.com                      |
|    \\/     M anipulation  |                                                 |
\*---------------------------------------------------------------------------*/
FoamFile
{
    version     2.0;
    format      ascii;
    arch        "LSB;label=32;scalar=64";
    class       volVectorField;
    location    "17";
    object      U;
}
// * * * * * * * * * * * * * * * * * * * * * * * * * * * * * * * * * * * * * //

dimensions      [0 1 -1 0 0 0 0];

internalField   nonuniform List<vector> 
15000
(
(0.15962853 0.053997678 0)
(0.11557193 0.0064916428 0)
(0.064251362 0.0014144231 0)
(0.055918599 0.00074960252 0)
(0.047595818 0.00028826919 0)
(0.0447088 0.00019884305 0)
(0.042412495 9.0522075e-05 0)
(0.041406637 6.0129224e-05 0)
(0.040707475 2.8982447e-05 0)
(0.040376989 1.8023885e-05 0)
(0.040167797 8.6662898e-06 0)
(0.04006866 4.9988473e-06 0)
(0.040011054 2.2693575e-06 0)
(0.039985309 1.1744785e-06 0)
(0.039971973 4.467198e-07 0)
(0.039967049 1.7366302e-07 0)
(0.03996518 1.3795773e-08 0)
(0.039965128 -3.0479472e-08 0)
(0.039965544 -4.8901182e-08 0)
(0.039966152 -4.3408039e-08 0)
(0.03996668 -3.5844381e-08 0)
(0.039967111 -2.6074475e-08 0)
(0.039967422 -1.8526302e-08 0)
(0.039967642 -1.2411651e-08 0)
(0.03996779 -8.1900464e-09 0)
(0.039967887 -5.2195467e-09 0)
(0.039967949 -3.2868022e-09 0)
(0.039967988 -2.0188926e-09 0)
(0.039968012 -1.2242585e-09 0)
(0.039968026 -7.2631203e-10 0)
(0.039968035 -4.2521663e-10 0)
(0.03996804 -2.4436497e-10 0)
(0.039968042 -1.3831706e-10 0)
(0.039968044 -7.6057846e-11 0)
(0.039968045 -4.0362872e-11 0)
(0.039968045 -2.0417652e-11 0)
(0.039968045 -9.9418294e-12 0)
(0.039968046 -4.4992702e-12 0)
(0.039968046 -1.6705896e-12 0)
(0.039968046 -2.4874384e-13 0)
(0.039968046 2.7362377e-13 0)
(0.039968046 3.3724127e-13 0)
(0.039968046 2.5460545e-13 0)
(0.039968046 2.5906988e-13 0)
(0.039968046 1.5619916e-13 0)
(0.039968046 -5.0196221e-16 0)
(0.039968046 -5.4600494e-14 0)
(0.039968046 1.4385624e-13 0)
(0.039968046 3.4431869e-13 0)
(0.039968046 5.5186212e-13 0)
(0.039968046 5.5302395e-13 0)
(0.039968046 6.0504101e-13 0)
(0.039968046 5.6634257e-13 0)
(0.039968046 6.3455688e-13 0)
(0.039968046 6.434963e-13 0)
(0.039968046 6.5306369e-13 0)
(0.039968046 6.0856407e-13 0)
(0.039968046 6.6405242e-13 0)
(0.039968046 5.8303204e-13 0)
(0.039968046 6.2826929e-13 0)
(0.039968046 4.8011956e-13 0)
(0.039968046 4.0574144e-13 0)
(0.039968046 2.7720462e-13 0)
(0.039968046 2.8360211e-13 0)
(0.039968046 3.104553e-13 0)
(0.039968046 3.9530309e-13 0)
(0.039968046 4.5739294e-13 0)
(0.039968046 4.5686492e-13 0)
(0.039968046 4.4136193e-13 0)
(0.039968046 4.8104621e-13 0)
(0.039968046 4.1705626e-13 0)
(0.039968046 5.4704272e-13 0)
(0.039968046 4.6531426e-13 0)
(0.039968046 5.8845403e-13 0)
(0.039968046 4.8833819e-13 0)
(0.039968046 5.4794568e-13 0)
(0.039968046 4.1320855e-13 0)
(0.039968046 5.229987e-13 0)
(0.039968046 5.3936641e-13 0)
(0.039968046 7.6324842e-13 0)
(0.039968046 7.2077957e-13 0)
(0.039968046 6.5338693e-13 0)
(0.039968046 2.7791258e-13 0)
(0.039968046 2.0762966e-14 0)
(0.039968046 -2.8109003e-13 0)
(0.039968046 -3.7451586e-13 0)
(0.039968046 -5.0951791e-13 0)
(0.039968046 -5.1145701e-13 0)
(0.039968046 -5.6478396e-13 0)
(0.039968046 -5.4041376e-13 0)
(0.039968046 -5.6598257e-13 0)
(0.039968046 -5.4231291e-13 0)
(0.039968046 -5.4085346e-13 0)
(0.039968046 -5.1373975e-13 0)
(0.039968046 -5.1565258e-13 0)
(0.039968046 -5.2800741e-13 0)
(0.039968046 -5.3591566e-13 0)
(0.039968046 -5.5300303e-13 0)
(0.039968046 -5.3051176e-13 0)
(0.039968046 -5.2261417e-13 0)
(0.039968046 -4.6725502e-13 0)
(0.039968046 -4.7636032e-13 0)
(0.039968046 -4.7933428e-13 0)
(0.039968046 -6.1841577e-13 0)
(0.039968046 -7.0196056e-13 0)
(0.039968046 -8.0113435e-13 0)
(0.039968046 -5.5160559e-13 0)
(0.039968046 -1.9102746e-13 0)
(0.039968046 2.6104793e-13 0)
(0.039968046 5.1549802e-13 0)
(0.039968046 5.024459e-13 0)
(0.039968046 2.2244366e-13 0)
(0.039968046 -1.5789953e-13 0)
(0.039968046 -4.7019664e-13 0)
(0.039968046 -5.1506954e-13 0)
(0.039968046 -4.8955385e-13 0)
(0.039968046 -1.5678268e-13 0)
(0.039968046 1.3382784e-13 0)
(0.039968046 4.6449654e-13 0)
(0.039968046 6.334359e-13 0)
(0.039968046 6.3629453e-13 0)
(0.039968046 4.23094e-13 0)
(0.039968046 1.7576705e-13 0)
(0.039968046 -6.8885099e-14 0)
(0.039968046 -2.245581e-13 0)
(0.039968046 -4.170405e-13 0)
(0.039968046 -5.822573e-13 0)
(0.039968046 -7.2598682e-13 0)
(0.039968046 -7.101392e-13 0)
(0.039968046 -5.3604128e-13 0)
(0.039968046 -2.2172884e-13 0)
(0.039968046 6.6182904e-14 0)
(0.039968046 2.7509287e-13 0)
(0.039968046 4.0642983e-13 0)
(0.039968046 4.7490349e-13 0)
(0.039968046 5.1318252e-13 0)
(0.039968046 5.2996199e-13 0)
(0.039968046 5.3370505e-13 0)
(0.039968046 5.2699349e-13 0)
(0.039968046 5.2538659e-13 0)
(0.039968046 5.1977539e-13 0)
(0.039968046 5.237298e-13 0)
(0.039968046 5.2064452e-13 0)
(0.039968046 5.2241266e-13 0)
(0.039968046 5.2204815e-13 0)
(0.039968046 5.3046702e-13 0)
(0.039968046 5.1986876e-13 0)
(0.039968046 4.8646838e-13 0)
(0.039968046 4.626825e-13 0)
(0.039968046 5.0407694e-13 0)
(0.039968046 6.1496251e-13 0)
(0.039968046 7.3289571e-13 0)
(0.039968046 7.2817957e-13 0)
(0.039968046 5.5683605e-13 0)
(0.039968046 2.4713214e-13 0)
(0.039968046 -6.3533672e-14 0)
(0.039968046 -2.7878246e-13 0)
(0.039968046 -4.2656311e-13 0)
(0.039968046 -5.0086319e-13 0)
(0.039968046 -5.5381186e-13 0)
(0.039968046 -5.7373197e-13 0)
(0.039968046 -5.9280814e-13 0)
(0.039968046 -5.9418911e-13 0)
(0.039968046 -5.9251911e-13 0)
(0.039968046 -5.7540728e-13 0)
(0.039968046 -5.7786269e-13 0)
(0.039968046 -5.6577522e-13 0)
(0.039968046 -5.7101411e-13 0)
(0.039968046 -5.6399589e-13 0)
(0.039968046 -5.7147919e-13 0)
(0.039968046 -5.6606204e-13 0)
(0.039968046 -5.7311905e-13 0)
(0.039968046 -5.6687015e-13 0)
(0.039968046 -5.7220086e-13 0)
(0.039968046 -5.6867422e-13 0)
(0.039968046 -5.7408437e-13 0)
(0.039968046 -5.7384674e-13 0)
(0.039968046 -5.7449244e-13 0)
(0.039968046 -5.7311791e-13 0)
(0.039968046 -5.7218784e-13 0)
(0.039968046 -5.7265027e-13 0)
(0.039968046 -5.6851495e-13 0)
(0.039968046 -5.5920368e-13 0)
(0.039968046 -5.5402809e-13 0)
(0.039968046 -5.5139394e-13 0)
(0.039968046 -5.5570424e-13 0)
(0.039968046 -5.4946242e-13 0)
(0.039968046 -5.5122494e-13 0)
(0.039968046 -5.503612e-13 0)
(0.039968046 -5.2363811e-13 0)
(0.039968046 -4.7372658e-13 0)
(0.039968046 -4.30454e-13 0)
(0.039968046 -4.9671072e-13 0)
(0.039968046 -6.3411262e-13 0)
(0.039968046 -7.9792243e-13 0)
(0.039968046 -8.3434882e-13 0)
(0.039968046 -6.854827e-13 0)
(0.039968046 -3.406525e-13 0)
(0.039968046 -2.9035306e-15 0)
(0.039968046 2.8396588e-13 0)
(0.039968046 4.5526957e-13 0)
(0.039968046 5.727298e-13 0)
(0.039968046 6.0704802e-13 0)
(0.039968046 6.225785e-13 0)
(0.039968046 5.9530871e-13 0)
(0.039968046 5.7577016e-13 0)
(0.039968046 5.376089e-13 0)
(0.039968046 5.3193076e-13 0)
(0.039968046 5.1456603e-13 0)
(0.039968046 5.1790657e-13 0)
(0.039968046 5.2133331e-13 0)
(0.039968046 5.5461878e-13 0)
(0.039968046 5.7629734e-13 0)
(0.039968046 5.7529843e-13 0)
(0.039968046 5.1832849e-13 0)
(0.039968046 4.8339428e-13 0)
(0.039968046 5.1059231e-13 0)
(0.039968046 6.2560076e-13 0)
(0.039968046 7.3748673e-13 0)
(0.039968046 7.4489705e-13 0)
(0.039968046 5.5246217e-13 0)
(0.039968046 2.6588353e-13 0)
(0.039968046 -2.6789006e-16 0)
(0.039968046 -1.9062605e-13 0)
(0.039968046 -3.6410809e-13 0)
(0.039968046 -5.5470608e-13 0)
(0.039968046 -6.9588587e-13 0)
(0.039968046 -7.7567849e-13 0)
(0.039968046 -6.8905123e-13 0)
(0.039968046 -4.8106165e-13 0)
(0.039968046 -1.3476682e-13 0)
(0.039968046 2.3238213e-13 0)
(0.039968046 5.1664517e-13 0)
(0.039968046 6.6744351e-13 0)
(0.039968046 5.6578657e-13 0)
(0.039968046 3.2427464e-13 0)
(0.039968046 6.6395289e-14 0)
(0.039968046 -1.3576987e-13 0)
(0.039968046 -2.9489974e-13 0)
(0.039968046 -4.9290652e-13 0)
(0.039968046 -6.6128907e-13 0)
(0.039968046 -7.6357732e-13 0)
(0.039968046 -6.7112052e-13 0)
(0.039968046 -4.2356278e-13 0)
(0.039968046 -1.0053729e-13 0)
(0.039968046 1.6355039e-13 0)
(0.039968046 3.3288014e-13 0)
(0.039968046 4.4543326e-13 0)
(0.039968046 5.1043968e-13 0)
(0.039968046 5.2711467e-13 0)
(0.039968046 4.9759374e-13 0)
(0.039968046 4.6632337e-13 0)
(0.039968046 5.0199613e-13 0)
(0.039968046 6.004873e-13 0)
(0.039968046 7.0828965e-13 0)
(0.039968046 7.3767998e-13 0)
(0.039968046 5.9582381e-13 0)
(0.039968046 3.1326053e-13 0)
(0.039968046 7.2639799e-15 0)
(0.039968046 -2.2237895e-13 0)
(0.039968046 -3.7485062e-13 0)
(0.039968046 -4.5589675e-13 0)
(0.039968046 -5.1164589e-13 0)
(0.039968046 -5.4066447e-13 0)
(0.039968046 -5.6764269e-13 0)
(0.039968046 -5.4902007e-13 0)
(0.039968046 -5.0971696e-13 0)
(0.039968046 -4.6361956e-13 0)
(0.039968046 -5.0004373e-13 0)
(0.039968046 -6.1396683e-13 0)
(0.039968046 -7.5831781e-13 0)
(0.039968046 -7.8989046e-13 0)
(0.039968046 -5.7012152e-13 0)
(0.039968046 -1.6595325e-13 0)
(0.039968046 2.3589767e-13 0)
(0.039968046 4.6675629e-13 0)
(0.039968046 4.4629942e-13 0)
(0.039968046 2.5520952e-13 0)
(0.039968046 -2.4377213e-16 0)
(0.039968046 -2.1282879e-13 0)
(0.039968046 -3.5223669e-13 0)
(0.039968046 -4.4902276e-13 0)
(0.039968046 -4.9212838e-13 0)
(0.039968046 -5.159457e-13 0)
(0.039968046 -5.2052259e-13 0)
(0.039968046 -5.243073e-13 0)
(0.039968046 -5.221779e-13 0)
(0.039968046 -5.3062587e-13 0)
(0.039968046 -5.2116962e-13 0)
(0.039968046 -5.2093743e-13 0)
(0.039968046 -5.0090972e-13 0)
(0.039968046 -5.0850834e-13 0)
(0.039968046 -5.2265148e-13 0)
(0.039968046 -5.4141895e-13 0)
(0.039968046 -4.7445674e-13 0)
(0.039968046 -3.9980753e-13 0)
(0.039968046 -4.7784244e-13 0)
(0.039968046 -7.1900908e-13 0)
(0.039968046 -7.1382674e-13 0)
(0.039968046 -2.8647288e-13 0)
(0.36732383 0.14062829 0)
(0.29754389 0.025079389 0)
(0.1860793 0.0083694716 0)
(0.16132807 0.0041218829 0)
(0.13901859 0.0019375831 0)
(0.13040448 0.0011770225 0)
(0.12396461 0.00061112661 0)
(0.12095998 0.00037191999 0)
(0.1189454 0.00019727186 0)
(0.11794826 0.00011565121 0)
(0.11733081 6.027119e-05 0)
(0.11702581 3.3424874e-05 0)
(0.11685066 1.6517417e-05 0)
(0.11676843 8.3953002e-06 0)
(0.1167257 3.6636726e-06 0)
(0.11670834 1.5201668e-06 0)
(0.1167012 3.984069e-07 0)
(0.11669986 -2.9080072e-08 0)
(0.1167004 -1.9981898e-07 0)
(0.11670175 -2.1643329e-07 0)
(0.11670304 -1.9063493e-07 0)
(0.11670415 -1.4614306e-07 0)
(0.11670497 -1.0635472e-07 0)
(0.11670557 -7.3190722e-08 0)
(0.11670597 -4.902886e-08 0)
(0.11670624 -3.1804345e-08 0)
(0.11670642 -2.0249881e-08 0)
(0.11670653 -1.2598854e-08 0)
(0.11670659 -7.7105396e-09 0)
(0.11670664 -4.6250882e-09 0)
(0.11670666 -2.7302533e-09 0)
(0.11670667 -1.5823428e-09 0)
(0.11670668 -9.0091515e-10 0)
(0.11670669 -5.0040093e-10 0)
(0.11670669 -2.6968707e-10 0)
(0.11670669 -1.4005273e-10 0)
(0.11670669 -6.9988515e-11 0)
(0.11670669 -3.2941983e-11 0)
(0.11670669 -1.3599301e-11 0)
(0.11670669 -3.9537391e-12 0)
(0.11670669 1.2413813e-13 0)
(0.11670669 1.2660722e-12 0)
(0.11670669 1.3609929e-12 0)
(0.11670669 1.3661014e-12 0)
(0.11670669 1.0356753e-12 0)
(0.11670669 4.2557417e-13 0)
(0.11670669 1.3133493e-13 0)
(0.11670669 5.4079311e-13 0)
(0.11670669 1.2190797e-12 0)
(0.11670669 1.6455446e-12 0)
(0.11670669 1.7488963e-12 0)
(0.11670669 1.8112976e-12 0)
(0.11670669 1.7713828e-12 0)
(0.11670669 1.935257e-12 0)
(0.11670669 2.0087474e-12 0)
(0.11670669 1.989962e-12 0)
(0.11670669 1.8619499e-12 0)
(0.11670669 1.8735879e-12 0)
(0.11670669 1.8059717e-12 0)
(0.11670669 1.7902369e-12 0)
(0.11670669 1.492574e-12 0)
(0.11670669 1.1560186e-12 0)
(0.11670669 8.6144718e-13 0)
(0.11670669 8.0907606e-13 0)
(0.11670669 9.9190288e-13 0)
(0.11670669 1.2347898e-12 0)
(0.11670669 1.4684565e-12 0)
(0.11670669 1.4601976e-12 0)
(0.11670669 1.4353484e-12 0)
(0.11670669 1.421086e-12 0)
(0.11670669 1.3613978e-12 0)
(0.11670669 1.5554449e-12 0)
(0.11670669 1.4752082e-12 0)
(0.11670669 1.6894017e-12 0)
(0.11670669 1.5501061e-12 0)
(0.11670669 1.5810564e-12 0)
(0.11670669 1.3162463e-12 0)
(0.11670669 1.4726723e-12 0)
(0.11670669 1.6772108e-12 0)
(0.11670669 2.1931927e-12 0)
(0.11670669 2.2399649e-12 0)
(0.11670669 1.9203951e-12 0)
(0.11670669 9.2932598e-13 0)
(0.11670669 3.1281437e-14 0)
(0.11670669 -7.6205414e-13 0)
(0.11670669 -1.1815075e-12 0)
(0.11670669 -1.4584376e-12 0)
(0.11670669 -1.5886469e-12 0)
(0.11670669 -1.6303729e-12 0)
(0.11670669 -1.6725216e-12 0)
(0.11670669 -1.639094e-12 0)
(0.11670669 -1.6743694e-12 0)
(0.11670669 -1.5704205e-12 0)
(0.11670669 -1.584265e-12 0)
(0.11670669 -1.4966838e-12 0)
(0.11670669 -1.6259871e-12 0)
(0.11670669 -1.5660763e-12 0)
(0.11670669 -1.6997709e-12 0)
(0.11670669 -1.53952e-12 0)
(0.11670669 -1.6145373e-12 0)
(0.11670669 -1.3742071e-12 0)
(0.11670669 -1.4666347e-12 0)
(0.11670669 -1.3990216e-12 0)
(0.11670669 -1.8460838e-12 0)
(0.11670669 -2.0727977e-12 0)
(0.11670669 -2.4305083e-12 0)
(0.11670669 -1.6643005e-12 0)
(0.11670669 -6.4080307e-13 0)
(0.11670669 8.2558971e-13 0)
(0.11670669 1.5784081e-12 0)
(0.11670669 1.5749493e-12 0)
(0.11670669 7.4662924e-13 0)
(0.11670669 -4.1633736e-13 0)
(0.11670669 -1.4049389e-12 0)
(0.11670669 -1.5266702e-12 0)
(0.11670669 -1.5175929e-12 0)
(0.11670669 -4.7462121e-13 0)
(0.11670669 3.383585e-13 0)
(0.11670669 1.4051448e-12 0)
(0.11670669 1.8932694e-12 0)
(0.11670669 1.9355739e-12 0)
(0.11670669 1.3138807e-12 0)
(0.11670669 5.5757348e-13 0)
(0.11670669 -1.71536e-13 0)
(0.11670669 -6.4698417e-13 0)
(0.11670669 -1.2083779e-12 0)
(0.11670669 -1.719926e-12 0)
(0.11670669 -2.1617917e-12 0)
(0.11670669 -2.1334895e-12 0)
(0.11670669 -1.6353084e-12 0)
(0.11670669 -6.8536384e-13 0)
(0.11670669 1.6405174e-13 0)
(0.11670669 8.204397e-13 0)
(0.11670669 1.208547e-12 0)
(0.11670669 1.4251323e-12 0)
(0.11670669 1.5385582e-12 0)
(0.11670669 1.5910103e-12 0)
(0.11670669 1.6000465e-12 0)
(0.11670669 1.583003e-12 0)
(0.11670669 1.5732498e-12 0)
(0.11670669 1.557738e-12 0)
(0.11670669 1.5658023e-12 0)
(0.11670669 1.5595875e-12 0)
(0.11670669 1.5616269e-12 0)
(0.11670669 1.5596186e-12 0)
(0.11670669 1.5840998e-12 0)
(0.11670669 1.5572693e-12 0)
(0.11670669 1.4608945e-12 0)
(0.11670669 1.3782602e-12 0)
(0.11670669 1.4831353e-12 0)
(0.11670669 1.8297285e-12 0)
(0.11670669 2.1772197e-12 0)
(0.11670669 2.1894956e-12 0)
(0.11670669 1.6980169e-12 0)
(0.11670669 7.6334694e-13 0)
(0.11670669 -1.52654e-13 0)
(0.11670669 -8.3280093e-13 0)
(0.11670669 -1.2713876e-12 0)
(0.11670669 -1.4987815e-12 0)
(0.11670669 -1.6532016e-12 0)
(0.11670669 -1.7089373e-12 0)
(0.11670669 -1.7638034e-12 0)
(0.11670669 -1.7697019e-12 0)
(0.11670669 -1.7579431e-12 0)
(0.11670669 -1.7201702e-12 0)
(0.11670669 -1.7218396e-12 0)
(0.11670669 -1.6907934e-12 0)
(0.11670669 -1.7010776e-12 0)
(0.11670669 -1.6849015e-12 0)
(0.11670669 -1.7021751e-12 0)
(0.11670669 -1.6918527e-12 0)
(0.11670669 -1.7076131e-12 0)
(0.11670669 -1.6931088e-12 0)
(0.11670669 -1.7043363e-12 0)
(0.11670669 -1.6965971e-12 0)
(0.11670669 -1.7086119e-12 0)
(0.11670669 -1.7090238e-12 0)
(0.11670669 -1.7090911e-12 0)
(0.11670669 -1.7022549e-12 0)
(0.11670669 -1.7020706e-12 0)
(0.11670669 -1.6969121e-12 0)
(0.11670669 -1.6915275e-12 0)
(0.11670669 -1.6581769e-12 0)
(0.11670669 -1.6458506e-12 0)
(0.11670669 -1.6383777e-12 0)
(0.11670669 -1.646371e-12 0)
(0.11670669 -1.6311419e-12 0)
(0.11670669 -1.6270219e-12 0)
(0.11670669 -1.6277939e-12 0)
(0.11670669 -1.5526738e-12 0)
(0.11670669 -1.3950941e-12 0)
(0.11670669 -1.263062e-12 0)
(0.11670669 -1.4396015e-12 0)
(0.11670669 -1.8375611e-12 0)
(0.11670669 -2.3421152e-12 0)
(0.11670669 -2.4804552e-12 0)
(0.11670669 -2.0368724e-12 0)
(0.11670669 -1.0473847e-12 0)
(0.11670669 -4.7204059e-15 0)
(0.11670669 8.4011031e-13 0)
(0.11670669 1.3637867e-12 0)
(0.11670669 1.699129e-12 0)
(0.11670669 1.8109469e-12 0)
(0.11670669 1.8512445e-12 0)
(0.11670669 1.7749556e-12 0)
(0.11670669 1.7103384e-12 0)
(0.11670669 1.5965939e-12 0)
(0.11670669 1.5678913e-12 0)
(0.11670669 1.5167714e-12 0)
(0.11670669 1.5214006e-12 0)
(0.11670669 1.5280697e-12 0)
(0.11670669 1.6290784e-12 0)
(0.11670669 1.7040546e-12 0)
(0.11670669 1.711773e-12 0)
(0.11670669 1.5420227e-12 0)
(0.11670669 1.4278168e-12 0)
(0.11670669 1.4939625e-12 0)
(0.11670669 1.83181e-12 0)
(0.11670669 2.1832751e-12 0)
(0.11670669 2.2209479e-12 0)
(0.11670669 1.6587164e-12 0)
(0.11670669 8.0287176e-13 0)
(0.11670669 -3.9082134e-15 0)
(0.11670669 -5.6756312e-13 0)
(0.11670669 -1.0892541e-12 0)
(0.11670669 -1.6501687e-12 0)
(0.11670669 -2.0998751e-12 0)
(0.11670669 -2.3279722e-12 0)
(0.11670669 -2.0864802e-12 0)
(0.11670669 -1.4846855e-12 0)
(0.11670669 -4.3967865e-13 0)
(0.11670669 6.3452527e-13 0)
(0.11670669 1.5491359e-12 0)
(0.11670669 1.9958756e-12 0)
(0.11670669 1.7185399e-12 0)
(0.11670669 1.0146076e-12 0)
(0.11670669 2.1021022e-13 0)
(0.11670669 -3.8016422e-13 0)
(0.11670669 -8.6800671e-13 0)
(0.11670669 -1.4377697e-12 0)
(0.11670669 -1.9780581e-12 0)
(0.11670669 -2.2879897e-12 0)
(0.11670669 -2.0302911e-12 0)
(0.11670669 -1.3129066e-12 0)
(0.11670669 -3.23576e-13 0)
(0.11670669 4.613822e-13 0)
(0.11670669 9.9249518e-13 0)
(0.11670669 1.3297371e-12 0)
(0.11670669 1.5262726e-12 0)
(0.11670669 1.5829458e-12 0)
(0.11670669 1.495125e-12 0)
(0.11670669 1.395352e-12 0)
(0.11670669 1.4877247e-12 0)
(0.11670669 1.7763608e-12 0)
(0.11670669 2.1098106e-12 0)
(0.11670669 2.2140928e-12 0)
(0.11670669 1.7994001e-12 0)
(0.11670669 9.6960722e-13 0)
(0.11670669 4.6030807e-14 0)
(0.11670669 -6.5041868e-13 0)
(0.11670669 -1.1141392e-12 0)
(0.11670669 -1.3621181e-12 0)
(0.11670669 -1.5270285e-12 0)
(0.11670669 -1.6198171e-12 0)
(0.11670669 -1.6964092e-12 0)
(0.11670669 -1.6566346e-12 0)
(0.11670669 -1.5308155e-12 0)
(0.11670669 -1.3940681e-12 0)
(0.11670669 -1.482897e-12 0)
(0.11670669 -1.824784e-12 0)
(0.11670669 -2.2630854e-12 0)
(0.11670669 -2.3736222e-12 0)
(0.11670669 -1.7511193e-12 0)
(0.11670669 -5.580142e-13 0)
(0.11670669 6.8910375e-13 0)
(0.11670669 1.3932823e-12 0)
(0.11670669 1.3661485e-12 0)
(0.11670669 8.0617556e-13 0)
(0.11670669 2.0240462e-14 0)
(0.11670669 -6.0410884e-13 0)
(0.11670669 -1.0449042e-12 0)
(0.11670669 -1.3295545e-12 0)
(0.11670669 -1.471632e-12 0)
(0.11670669 -1.5420914e-12 0)
(0.11670669 -1.5586126e-12 0)
(0.11670669 -1.5720332e-12 0)
(0.11670669 -1.5689721e-12 0)
(0.11670669 -1.5854619e-12 0)
(0.11670669 -1.5664554e-12 0)
(0.11670669 -1.5579854e-12 0)
(0.11670669 -1.50465e-12 0)
(0.11670669 -1.5147482e-12 0)
(0.11670669 -1.5647965e-12 0)
(0.11670669 -1.6229626e-12 0)
(0.11670669 -1.4385814e-12 0)
(0.11670669 -1.1933703e-12 0)
(0.11670669 -1.3956271e-12 0)
(0.11670669 -2.1110221e-12 0)
(0.11670669 -2.1825983e-12 0)
(0.11670669 -9.4528136e-13 0)
(0.50390834 0.19019022 0)
(0.4384704 0.050431511 0)
(0.29767008 0.022055325 0)
(0.25944374 0.010780108 0)
(0.22598939 0.005562142 0)
(0.21213187 0.0032307969 0)
(0.20205719 0.0017732867 0)
(0.19716897 0.0010457378 0)
(0.19394744 0.00057679971 0)
(0.19230772 0.0003313437 0)
(0.19130242 0.000178341 0)
(0.19079327 9.7736667e-05 0)
(0.19050201 4.9929268e-05 0)
(0.1903612 2.5329206e-05 0)
(0.19028763 1.162017e-05 0)
(0.19025609 4.9677615e-06 0)
(0.1902425 1.5949188e-06 0)
(0.19023894 1.7211154e-07 0)
(0.19023899 -4.0085285e-07 0)
(0.19024063 -5.2320984e-07 0)
(0.19024241 -4.8535874e-07 0)
(0.19024402 -3.85004e-07 0)
(0.19024524 -2.8481943e-07 0)
(0.19024615 -1.9911602e-07 0)
(0.19024677 -1.3463962e-07 0)
(0.19024719 -8.8198418e-08 0)
(0.19024746 -5.6519097e-08 0)
(0.19024763 -3.5407903e-08 0)
(0.19024774 -2.1782869e-08 0)
(0.1902478 -1.3142588e-08 0)
(0.19024784 -7.7941785e-09 0)
(0.19024787 -4.5372119e-09 0)
(0.19024788 -2.5923488e-09 0)
(0.19024789 -1.447579e-09 0)
(0.19024789 -7.8680986e-10 0)
(0.19024789 -4.138137e-10 0)
(0.1902479 -2.0951833e-10 0)
(0.1902479 -1.0038417e-10 0)
(0.1902479 -4.3512621e-11 0)
(0.1902479 -1.5152815e-11 0)
(0.1902479 -2.3886962e-12 0)
(0.1902479 2.2642554e-12 0)
(0.1902479 3.4537132e-12 0)
(0.1902479 3.5190225e-12 0)
(0.1902479 2.7749215e-12 0)
(0.1902479 1.622493e-12 0)
(0.1902479 1.0176796e-12 0)
(0.1902479 1.4146296e-12 0)
(0.1902479 2.245145e-12 0)
(0.1902479 2.6544865e-12 0)
(0.1902479 2.6613766e-12 0)
(0.1902479 2.5957008e-12 0)
(0.1902479 2.4705425e-12 0)
(0.1902479 2.6433084e-12 0)
(0.1902479 2.7343059e-12 0)
(0.1902479 2.7096922e-12 0)
(0.1902479 2.5744683e-12 0)
(0.1902479 2.5935055e-12 0)
(0.1902479 2.5232884e-12 0)
(0.1902479 2.4725449e-12 0)
(0.1902479 2.0954147e-12 0)
(0.1902479 1.6421221e-12 0)
(0.1902479 1.2807887e-12 0)
(0.1902479 1.208093e-12 0)
(0.1902479 1.4753975e-12 0)
(0.1902479 1.7945884e-12 0)
(0.1902479 2.1077744e-12 0)
(0.1902479 2.0800056e-12 0)
(0.1902479 2.0454022e-12 0)
(0.1902479 1.9979927e-12 0)
(0.1902479 1.9211725e-12 0)
(0.1902479 2.1570551e-12 0)
(0.1902479 2.0591966e-12 0)
(0.1902479 2.3205698e-12 0)
(0.1902479 2.1369201e-12 0)
(0.1902479 2.1542218e-12 0)
(0.1902479 1.8251012e-12 0)
(0.1902479 2.0375135e-12 0)
(0.1902479 2.3366615e-12 0)
(0.1902479 2.9749928e-12 0)
(0.1902479 2.9609415e-12 0)
(0.1902479 2.4399053e-12 0)
(0.1902479 1.0846222e-12 0)
(0.1902479 -1.1761035e-13 0)
(0.1902479 -1.1266177e-12 0)
(0.1902479 -1.6755954e-12 0)
(0.1902479 -1.989568e-12 0)
(0.1902479 -2.1695061e-12 0)
(0.1902479 -2.1981218e-12 0)
(0.1902479 -2.2816495e-12 0)
(0.1902479 -2.2180128e-12 0)
(0.1902479 -2.2954765e-12 0)
(0.1902479 -2.13118e-12 0)
(0.1902479 -2.1809259e-12 0)
(0.1902479 -2.0460612e-12 0)
(0.1902479 -2.2582591e-12 0)
(0.1902479 -2.1460072e-12 0)
(0.1902479 -2.358451e-12 0)
(0.1902479 -2.1030806e-12 0)
(0.1902479 -2.2471498e-12 0)
(0.1902479 -1.9002196e-12 0)
(0.1902479 -2.0748717e-12 0)
(0.1902479 -1.9686225e-12 0)
(0.1902479 -2.5789257e-12 0)
(0.1902479 -2.7982549e-12 0)
(0.1902479 -3.2007166e-12 0)
(0.1902479 -2.0729785e-12 0)
(0.1902479 -7.1359366e-13 0)
(0.1902479 1.2342322e-12 0)
(0.1902479 2.115805e-12 0)
(0.1902479 2.0114457e-12 0)
(0.1902479 8.5938162e-13 0)
(0.1902479 -6.8183427e-13 0)
(0.1902479 -1.9505846e-12 0)
(0.1902479 -1.9802189e-12 0)
(0.1902479 -1.9164396e-12 0)
(0.1902479 -4.5384534e-13 0)
(0.1902479 6.0723207e-13 0)
(0.1902479 2.0168242e-12 0)
(0.1902479 2.5644875e-12 0)
(0.1902479 2.5238506e-12 0)
(0.1902479 1.6304384e-12 0)
(0.1902479 5.948885e-13 0)
(0.1902479 -3.7709281e-13 0)
(0.1902479 -1.004634e-12 0)
(0.1902479 -1.7408348e-12 0)
(0.1902479 -2.3968456e-12 0)
(0.1902479 -2.9340697e-12 0)
(0.1902479 -2.7946939e-12 0)
(0.1902479 -2.060126e-12 0)
(0.1902479 -7.6345482e-13 0)
(0.1902479 3.6074367e-13 0)
(0.1902479 1.2147567e-12 0)
(0.1902479 1.7082009e-12 0)
(0.1902479 1.9775656e-12 0)
(0.1902479 2.1231013e-12 0)
(0.1902479 2.1866378e-12 0)
(0.1902479 2.2065866e-12 0)
(0.1902479 2.1843962e-12 0)
(0.1902479 2.1761894e-12 0)
(0.1902479 2.1536069e-12 0)
(0.1902479 2.1676946e-12 0)
(0.1902479 2.1560062e-12 0)
(0.1902479 2.1606189e-12 0)
(0.1902479 2.1540134e-12 0)
(0.1902479 2.1873875e-12 0)
(0.1902479 2.1418757e-12 0)
(0.1902479 2.0134122e-12 0)
(0.1902479 1.9090691e-12 0)
(0.1902479 2.0689829e-12 0)
(0.1902479 2.5360098e-12 0)
(0.1902479 2.961924e-12 0)
(0.1902479 2.8835277e-12 0)
(0.1902479 2.1580439e-12 0)
(0.1902479 8.7433e-13 0)
(0.1902479 -3.3642047e-13 0)
(0.1902479 -1.2207795e-12 0)
(0.1902479 -1.7709725e-12 0)
(0.1902479 -2.041442e-12 0)
(0.1902479 -2.230977e-12 0)
(0.1902479 -2.3024175e-12 0)
(0.1902479 -2.3823632e-12 0)
(0.1902479 -2.4012391e-12 0)
(0.1902479 -2.3962715e-12 0)
(0.1902479 -2.3548058e-12 0)
(0.1902479 -2.3654996e-12 0)
(0.1902479 -2.3228718e-12 0)
(0.1902479 -2.3401899e-12 0)
(0.1902479 -2.3139656e-12 0)
(0.1902479 -2.3401598e-12 0)
(0.1902479 -2.3220966e-12 0)
(0.1902479 -2.3481929e-12 0)
(0.1902479 -2.3249448e-12 0)
(0.1902479 -2.3473575e-12 0)
(0.1902479 -2.3324775e-12 0)
(0.1902479 -2.3551785e-12 0)
(0.1902479 -2.3487949e-12 0)
(0.1902479 -2.3543335e-12 0)
(0.1902479 -2.3369191e-12 0)
(0.1902479 -2.3442516e-12 0)
(0.1902479 -2.3268455e-12 0)
(0.1902479 -2.3285803e-12 0)
(0.1902479 -2.273848e-12 0)
(0.1902479 -2.2695098e-12 0)
(0.1902479 -2.2550407e-12 0)
(0.1902479 -2.2710023e-12 0)
(0.1902479 -2.2464825e-12 0)
(0.1902479 -2.2442272e-12 0)
(0.1902479 -2.2365347e-12 0)
(0.1902479 -2.1334873e-12 0)
(0.1902479 -1.9171902e-12 0)
(0.1902479 -1.7688392e-12 0)
(0.1902479 -2.0393217e-12 0)
(0.1902479 -2.5898698e-12 0)
(0.1902479 -3.2269074e-12 0)
(0.1902479 -3.3412244e-12 0)
(0.1902479 -2.6518359e-12 0)
(0.1902479 -1.3110674e-12 0)
(0.1902479 6.4152636e-14 0)
(0.1902479 1.1636275e-12 0)
(0.1902479 1.8367198e-12 0)
(0.1902479 2.2778778e-12 0)
(0.1902479 2.4221568e-12 0)
(0.1902479 2.4886906e-12 0)
(0.1902479 2.3867502e-12 0)
(0.1902479 2.3171337e-12 0)
(0.1902479 2.172409e-12 0)
(0.1902479 2.1467461e-12 0)
(0.1902479 2.0859473e-12 0)
(0.1902479 2.1072475e-12 0)
(0.1902479 2.1270765e-12 0)
(0.1902479 2.2767479e-12 0)
(0.1902479 2.3784024e-12 0)
(0.1902479 2.3833173e-12 0)
(0.1902479 2.148093e-12 0)
(0.1902479 2.0032474e-12 0)
(0.1902479 2.1054402e-12 0)
(0.1902479 2.5490802e-12 0)
(0.1902479 2.9682809e-12 0)
(0.1902479 2.9211716e-12 0)
(0.1902479 2.0947999e-12 0)
(0.1902479 9.2654727e-13 0)
(0.1902479 -1.4101468e-13 0)
(0.1902479 -8.7614776e-13 0)
(0.1902479 -1.5641351e-12 0)
(0.1902479 -2.3034319e-12 0)
(0.1902479 -2.8705113e-12 0)
(0.1902479 -3.1065461e-12 0)
(0.1902479 -2.7007481e-12 0)
(0.1902479 -1.848776e-12 0)
(0.1902479 -4.1825724e-13 0)
(0.1902479 9.9775344e-13 0)
(0.1902479 2.1723353e-12 0)
(0.1902479 2.6598886e-12 0)
(0.1902479 2.194985e-12 0)
(0.1902479 1.2169767e-12 0)
(0.1902479 1.4040198e-13 0)
(0.1902479 -6.3372998e-13 0)
(0.1902479 -1.2805693e-12 0)
(0.1902479 -2.0295698e-12 0)
(0.1902479 -2.7237247e-12 0)
(0.1902479 -3.0694076e-12 0)
(0.1902479 -2.6300897e-12 0)
(0.1902479 -1.6265937e-12 0)
(0.1902479 -2.9339949e-13 0)
(0.1902479 7.3387715e-13 0)
(0.1902479 1.4178579e-12 0)
(0.1902479 1.8466707e-12 0)
(0.1902479 2.0841931e-12 0)
(0.1902479 2.1485774e-12 0)
(0.1902479 2.0284052e-12 0)
(0.1902479 1.9152301e-12 0)
(0.1902479 2.0652317e-12 0)
(0.1902479 2.4622477e-12 0)
(0.1902479 2.8781119e-12 0)
(0.1902479 2.9360276e-12 0)
(0.1902479 2.300104e-12 0)
(0.1902479 1.1542874e-12 0)
(0.1902479 -8.3172988e-14 0)
(0.1902479 -9.8925761e-13 0)
(0.1902479 -1.5790706e-12 0)
(0.1902479 -1.8837737e-12 0)
(0.1902479 -2.0910666e-12 0)
(0.1902479 -2.2114379e-12 0)
(0.1902479 -2.3115715e-12 0)
(0.1902479 -2.2549173e-12 0)
(0.1902479 -2.085322e-12 0)
(0.1902479 -1.9232363e-12 0)
(0.1902479 -2.0646742e-12 0)
(0.1902479 -2.5329511e-12 0)
(0.1902479 -3.0767118e-12 0)
(0.1902479 -3.1263679e-12 0)
(0.1902479 -2.2046401e-12 0)
(0.1902479 -5.8239733e-13 0)
(0.1902479 1.0577027e-12 0)
(0.1902479 1.8965103e-12 0)
(0.1902479 1.7530015e-12 0)
(0.1902479 9.4104964e-13 0)
(0.1902479 -1.3211392e-13 0)
(0.1902479 -9.5090912e-13 0)
(0.1902479 -1.5126401e-12 0)
(0.1902479 -1.8591413e-12 0)
(0.1902479 -2.0293309e-12 0)
(0.1902479 -2.1151021e-12 0)
(0.1902479 -2.1403197e-12 0)
(0.1902479 -2.1636318e-12 0)
(0.1902479 -2.1640043e-12 0)
(0.1902479 -2.1831471e-12 0)
(0.1902479 -2.1565293e-12 0)
(0.1902479 -2.1385298e-12 0)
(0.1902479 -2.0675187e-12 0)
(0.1902479 -2.0810492e-12 0)
(0.1902479 -2.1534809e-12 0)
(0.1902479 -2.2204324e-12 0)
(0.1902479 -1.9612711e-12 0)
(0.1902479 -1.6481874e-12 0)
(0.1902479 -1.9672311e-12 0)
(0.1902479 -2.9091172e-12 0)
(0.1902479 -2.8996617e-12 0)
(0.1902479 -1.2122915e-12 0)
(0.59346672 0.2146733 0)
(0.54593347 0.075998412 0)
(0.39702192 0.039312302 0)
(0.34953974 0.019720559 0)
(0.30792187 0.010726733 0)
(0.28963523 0.006158372 0)
(0.27651264 0.0034761782 0)
(0.26994405 0.0020290997 0)
(0.26565503 0.0011409892 0)
(0.26342423 0.00065141034 0)
(0.26206335 0.00035634039 0)
(0.26136077 0.00019488161 0)
(0.26095907 0.00010130076 0)
(0.26076048 5.159578e-05 0)
(0.260656 2.4318337e-05 0)
(0.26060945 1.0644753e-05 0)
(0.26058866 3.7605615e-06 0)
(0.26058217 7.1124271e-07 0)
(0.26058122 -5.4306274e-07 0)
(0.26058278 -8.8457473e-07 0)
(0.2605848 -8.64792e-07 0)
(0.26058673 -7.0566254e-07 0)
(0.26058825 -5.2974535e-07 0)
(0.26058939 -3.7480285e-07 0)
(0.26059018 -2.5541125e-07 0)
(0.26059072 -1.6851812e-07 0)
(0.26059108 -1.0855135e-07 0)
(0.2605913 -6.8352617e-08 0)
(0.26059144 -4.2226367e-08 0)
(0.26059153 -2.5588087e-08 0)
(0.26059158 -1.5231977e-08 0)
(0.26059162 -8.8994203e-09 0)
(0.26059163 -5.1020066e-09 0)
(0.26059165 -2.8618392e-09 0)
(0.26059165 -1.5654808e-09 0)
(0.26059165 -8.3057232e-10 0)
(0.26059166 -4.2461635e-10 0)
(0.26059166 -2.0619863e-10 0)
(0.26059166 -9.2214023e-11 0)
(0.26059166 -3.5168173e-11 0)
(0.26059166 -8.4778972e-12 0)
(0.26059166 2.5216311e-12 0)
(0.26059166 6.0907969e-12 0)
(0.26059166 6.4015261e-12 0)
(0.26059166 5.0665899e-12 0)
(0.26059166 3.3870627e-12 0)
(0.26059166 2.5757175e-12 0)
(0.26059166 2.8360618e-12 0)
(0.26059166 3.4650727e-12 0)
(0.26059166 3.5854142e-12 0)
(0.26059166 3.2094942e-12 0)
(0.26059166 2.8005186e-12 0)
(0.26059166 2.4638375e-12 0)
(0.26059166 2.5275413e-12 0)
(0.26059166 2.5606924e-12 0)
(0.26059166 2.5365679e-12 0)
(0.26059166 2.4983336e-12 0)
(0.26059166 2.6151399e-12 0)
(0.26059166 2.5351885e-12 0)
(0.26059166 2.4873618e-12 0)
(0.26059166 2.1437516e-12 0)
(0.26059166 1.8051812e-12 0)
(0.26059166 1.5603153e-12 0)
(0.26059166 1.5265238e-12 0)
(0.26059166 1.7809065e-12 0)
(0.26059166 2.0245967e-12 0)
(0.26059166 2.2651515e-12 0)
(0.26059166 2.1373654e-12 0)
(0.26059166 2.0653604e-12 0)
(0.26059166 2.0131344e-12 0)
(0.26059166 1.9182512e-12 0)
(0.26059166 2.1885622e-12 0)
(0.26059166 2.0375411e-12 0)
(0.26059166 2.2848396e-12 0)
(0.26059166 2.0303577e-12 0)
(0.26059166 2.0607152e-12 0)
(0.26059166 1.7702303e-12 0)
(0.26059166 2.0868713e-12 0)
(0.26059166 2.3511765e-12 0)
(0.26059166 2.8491849e-12 0)
(0.26059166 2.5116418e-12 0)
(0.26059166 1.8053838e-12 0)
(0.26059166 4.1957969e-13 0)
(0.26059166 -5.8212923e-13 0)
(0.26059166 -1.3808425e-12 0)
(0.26059166 -1.730938e-12 0)
(0.26059166 -1.915388e-12 0)
(0.26059166 -2.0245344e-12 0)
(0.26059166 -2.0277386e-12 0)
(0.26059166 -2.1225795e-12 0)