/*--------------------------------*- C++ -*----------------------------------*\
| =========                 |                                                 |
| \\      /  F ield         | OpenFOAM: The Open Source CFD Toolbox           |
|  \\    /   O peration     | Version:  2206                                  |
|   \\  /    A nd           | Website:  www.openfoam.com                      |
|    \\/     M anipulation  |                                                 |
\*---------------------------------------------------------------------------*/
FoamFile
{
    version     2.0;
    format      ascii;
    arch        "LSB;label=32;scalar=64";
    class       surfaceScalarField;
    location    "18";
    object      phi;
}
// * * * * * * * * * * * * * * * * * * * * * * * * * * * * * * * * * * * * * //

dimensions      [0 3 -1 0 0 0 0];

oriented        oriented;

internalField   nonuniform List<scalar> 
29650
(
6.0867648e-05
0.00020579915
3.2718169e-05
2.8149476e-05
2.4599021e-05
8.1191541e-06
2.0417848e-05
4.1811865e-06
1.8552178e-05
1.8656886e-06
1.73737e-05
1.1784948e-06
1.6781661e-05
5.9205074e-07
1.6412315e-05
3.6935165e-07
1.6220821e-05
1.9149344e-07
1.6106686e-05
1.1413078e-07
1.6048258e-05
5.8422374e-08
1.6015474e-05
3.2778333e-08
1.5999542e-05
1.5927311e-08
1.5991376e-05
8.161922e-09
1.5987889e-05
3.4847074e-09
1.598644e-05
1.4475186e-09
1.598609e-05
3.4949075e-10
1.5986138e-05
-4.7670361e-11
1.5986349e-05
-2.107213e-10
1.5986569e-05
-2.1951214e-10
1.5986762e-05
-1.9194545e-10
1.5986908e-05
-1.4589148e-10
1.5987014e-05
-1.060459e-10
1.5987087e-05
-7.2806845e-11
1.5987136e-05
-4.8816234e-11
1.5987167e-05
-3.1649982e-11
1.5987187e-05
-2.0155845e-11
1.59872e-05
-1.2525749e-11
1.5987208e-05
-7.6627131e-12
1.5987212e-05
-4.5926594e-12
1.5987215e-05
-2.7072274e-12
1.5987216e-05
-1.5608116e-12
1.5987217e-05
-8.8053346e-13
1.5987218e-05
-4.8397377e-13
1.5987218e-05
-2.5929293e-13
1.5987218e-05
-1.3422146e-13
1.5987218e-05
-6.6082724e-14
1.5987218e-05
-2.9723898e-14
1.5987218e-05
-1.113154e-14
1.5987218e-05
-2.3615291e-15
1.5987218e-05
1.3359343e-15
1.5987218e-05
2.7305192e-15
1.5987218e-05
3.6125e-15
1.5987218e-05
3.4550464e-15
1.5987218e-05
2.4654482e-15
1.5987218e-05
8.4521035e-16
1.5987218e-05
2.455489e-16
1.5987218e-05
2.1144563e-16
1.5987218e-05
1.1889274e-15
1.5987218e-05
1.3716629e-15
1.5987218e-05
1.7703768e-15
1.5987218e-05
1.3279228e-15
1.5987218e-05
1.0821987e-15
1.5987218e-05
3.918684e-16
1.5987218e-05
1.4355102e-16
1.5987218e-05
-1.9349344e-16
1.5987218e-05
-2.4018439e-16
1.5987218e-05
-5.9670917e-16
1.5987218e-05
-2.757778e-16
1.5987218e-05
-5.3296999e-16
1.5987218e-05
-3.2278318e-16
1.5987218e-05
-4.7207301e-16
1.5987218e-05
-4.0606048e-16
1.5987218e-05
-5.769137e-16
1.5987218e-05
-7.2597666e-16
1.5987218e-05
-9.0124698e-16
1.5987218e-05
-1.0243627e-15
1.5987218e-05
-8.8945143e-16
1.5987218e-05
-6.9637251e-16
1.5987218e-05
-5.8884135e-16
1.5987218e-05
-3.2296969e-16
1.5987218e-05
-4.2949966e-16
1.5987218e-05
-3.5823909e-16
1.5987218e-05
-5.8392583e-16
1.5987218e-05
-5.0396004e-16
1.5987218e-05
-3.1008769e-16
1.5987218e-05
2.4332115e-16
1.5987218e-05
6.4344778e-16
1.5987218e-05
9.2110169e-16
1.5987218e-05
6.7114952e-16
1.5987218e-05
3.6088677e-16
1.5987218e-05
-7.2699484e-17
1.5987218e-05
-6.6127248e-17
1.5987218e-05
-1.4850199e-16
1.5987218e-05
6.2890568e-17
1.5987218e-05
3.0076572e-17
1.5987218e-05
1.8472366e-16
1.5987218e-05
1.068481e-16
1.5987218e-05
2.229817e-16
1.5987218e-05
1.3736151e-16
1.5987218e-05
2.4361362e-16
1.5987218e-05
1.6643729e-16
1.5987218e-05
2.690231e-16
1.5987218e-05
1.8384922e-16
1.5987218e-05
2.6899791e-16
1.5987218e-05
1.4474206e-16
1.5987218e-05
1.6251942e-16
1.5987218e-05
1.3889878e-17
1.5987218e-05
1.0640608e-16
1.5987218e-05
8.8676089e-17
1.5987218e-05
2.8423105e-16
1.5987218e-05
2.3262897e-16
1.5987218e-05
-8.9239742e-17
1.5987218e-05
-6.5492318e-16
1.5987218e-05
-9.3722114e-16
1.5987218e-05
-7.7909422e-16
1.5987218e-05
5.0689065e-17
1.5987218e-05
9.6384451e-16
1.5987218e-05
1.2974063e-15
1.5987218e-05
9.9074491e-16
1.5987218e-05
2.2034946e-16
1.5987218e-05
-6.3952188e-16
1.5987218e-05
-1.0625121e-15
1.5987218e-05
-1.0977278e-15
1.5987218e-05
-5.8986135e-16
1.5987218e-05
3.2369359e-17
1.5987218e-05
5.4004633e-16
1.5987218e-05
8.3555828e-16
1.5987218e-05
8.9079891e-16
1.5987218e-05
6.961841e-16
1.5987218e-05
5.6965062e-16
1.5987218e-05
4.8504974e-16
1.5987218e-05
5.0178016e-16
1.5987218e-05
2.1636636e-16
1.5987218e-05
-1.42932e-16
1.5987218e-05
-6.4546558e-16
1.5987218e-05
-7.333525e-16
1.5987218e-05
-6.6947707e-16
1.5987218e-05
-2.3237955e-16
1.5987218e-05
-1.652268e-17
1.5987218e-05
1.2499627e-16
1.5987218e-05
4.5049079e-17
1.5987218e-05
4.818723e-17
1.5987218e-05
-4.1146564e-17
1.5987218e-05
2.8503408e-17
1.5987218e-05
-2.2108212e-17
1.5987218e-05
7.3200262e-17
1.5987218e-05
2.8489711e-18
1.5987218e-05
7.9852826e-17
1.5987218e-05
-1.9509631e-17
1.5987218e-05
4.4097447e-17
1.5987218e-05
-6.1157241e-17
1.5987218e-05
2.3982689e-18
1.5987218e-05
-1.0277507e-16
1.5987218e-05
-4.7630448e-17
1.5987218e-05
-1.3833881e-16
1.5987218e-05
-6.94843e-17
1.5987218e-05
-1.8995293e-16
1.5987218e-05
-2.3660738e-16
1.5987218e-05
-3.7628056e-16
1.5987218e-05
-2.1330273e-16
1.5987218e-05
7.9910484e-17
1.5987218e-05
5.4667277e-16
1.5987218e-05
8.5688916e-16
1.5987218e-05
8.6553222e-16
1.5987218e-05
5.6437811e-16
1.5987218e-05
2.28186e-16
1.5987218e-05
5.0641356e-18
1.5987218e-05
-2.6343528e-17
1.5987218e-05
-8.5817078e-18
1.5987218e-05
3.8435297e-17
1.5987218e-05
6.1228346e-17
1.5987218e-05
5.2733814e-17
1.5987218e-05
5.6383073e-17
1.5987218e-05
1.4446645e-17
1.5987218e-05
-1.5566127e-18
1.5987218e-05
-3.0154987e-17
1.5987218e-05
-2.6261465e-17
1.5987218e-05
-5.0619128e-17
1.5987218e-05
-2.4971534e-17
1.5987218e-05
-5.3347725e-17
1.5987218e-05
-2.3322848e-17
1.5987218e-05
-6.1023321e-17
1.5987218e-05
-2.364625e-17
1.5987218e-05
-6.8881519e-17
1.5987218e-05
-1.8034895e-17
1.5987218e-05
-7.8020188e-17
1.5987218e-05
-1.6986253e-17
1.5987218e-05
-8.163999e-17
1.5987218e-05
-1.6176433e-17
1.5987218e-05
-7.3574142e-17
1.5987218e-05
-1.2103767e-17
1.5987218e-05
-5.0974921e-17
1.5987218e-05
2.4278092e-17
1.5987218e-05
-1.7080045e-17
1.5987218e-05
4.9280262e-17
1.5987218e-05
1.9178971e-17
1.5987218e-05
9.5628302e-17
1.5987218e-05
7.2559633e-17
1.5987218e-05
1.857653e-16
1.5987218e-05
2.5941388e-16
1.5987218e-05
4.2050147e-16
1.5987218e-05
2.9001188e-16
1.5987218e-05
-2.8590033e-18
1.5987218e-05
-4.8707123e-16
1.5987218e-05
-8.4802509e-16
1.5987218e-05
-8.6980011e-16
1.5987218e-05
-5.9943424e-16
1.5987218e-05
-2.0419337e-16
1.5987218e-05
9.9837605e-19
1.5987218e-05
6.1050662e-17
1.5987218e-05
1.5466803e-17
1.5987218e-05
-1.6765359e-17
1.5987218e-05
-3.3190412e-17
1.5987218e-05
-2.400357e-17
1.5987218e-05
-6.3949277e-18
1.5987218e-05
-1.8349411e-18
1.5987218e-05
-3.3445786e-18
1.5987218e-05
-1.9145936e-17
1.5987218e-05
-5.9177897e-17
1.5987218e-05
-1.2369271e-16
1.5987218e-05
-1.627941e-16
1.5987218e-05
-1.9201311e-16
1.5987218e-05
-2.0431526e-16
1.5987218e-05
-3.109059e-16
1.5987218e-05
-3.9624012e-16
1.5987218e-05
-3.6548982e-16
1.5987218e-05
-5.7619231e-17
1.5987218e-05
4.0523707e-16
1.5987218e-05
8.1882545e-16
1.5987218e-05
8.9509544e-16
1.5987218e-05
6.6217187e-16
1.5987218e-05
2.5115801e-16
1.5987218e-05
1.2797104e-16
1.5987218e-05
1.0456767e-16
1.5987218e-05
6.4878892e-17
1.5987218e-05
-1.9508409e-16
1.5987218e-05
-5.8077805e-16
1.5987218e-05
-9.2277436e-16
1.5987218e-05
-1.1353509e-15
1.5987218e-05
-1.0114633e-15
1.5987218e-05
-6.5129456e-16
1.5987218e-05
-1.4439991e-16
1.5987218e-05
4.4513418e-16
1.5987218e-05
7.3047851e-16
1.5987218e-05
8.8618274e-16
1.5987218e-05
5.8654041e-16
1.5987218e-05
3.804829e-16
1.5987218e-05
2.1487292e-16
1.5987218e-05
1.5630439e-16
1.5987218e-05
-1.1812467e-16
1.5987218e-05
-4.9786673e-16
1.5987218e-05
-8.2219257e-16
1.5987218e-05
-8.8155719e-16
1.5987218e-05
-6.4262706e-16
1.5987218e-05
-2.8337966e-16
1.5987218e-05
-1.3420741e-16
1.5987218e-05
-2.1817841e-17
1.5987218e-05
-6.37836e-17
1.5987218e-05
-7.3994341e-17
1.5987218e-05
-2.0834083e-16
1.5987218e-05
-2.5997885e-16
1.5987218e-05
-1.4974949e-16
1.5987218e-05
2.2144616e-16
1.5987218e-05
6.7427529e-16
1.5987218e-05
1.0031277e-15
1.5987218e-05
1.0311728e-15
1.5987218e-05
7.2293046e-16
1.5987218e-05
3.3414206e-16
1.5987218e-05
1.3478178e-16
1.5987218e-05
9.2563639e-17
1.5987218e-05
1.521751e-16
1.5987218e-05
2.090479e-16
1.5987218e-05
2.060263e-16
1.5987218e-05
1.8586746e-16
1.5987218e-05
1.9152302e-16
1.5987218e-05
2.6517857e-16
1.5987218e-05
3.0767153e-16
1.5987218e-05
2.3764074e-16
1.5987218e-05
-6.8546849e-17
1.5987218e-05
-5.2883352e-16
1.5987218e-05
-1.013099e-15
1.5987218e-05
-1.1243447e-15
1.5987218e-05
-8.1431139e-16
1.5987218e-05
-1.0428924e-16
1.5987218e-05
5.1952796e-16
1.5987218e-05
9.0062675e-16
1.5987218e-05
9.3755389e-16
1.5987218e-05
6.0973788e-16
1.5987218e-05
2.6715349e-16
1.5987218e-05
1.0073418e-16
1.5987218e-05
8.7814666e-17
1.5987218e-05
1.9053981e-16
1.5987218e-05
2.4236279e-16
1.5987218e-05
3.1604355e-16
1.5987218e-05
2.987197e-16
1.5987218e-05
3.1117806e-16
1.5987218e-05
2.2925613e-16
1.5987218e-05
2.4299137e-16
1.5987218e-05
1.6147737e-16
1.5987218e-05
2.0369445e-16
1.5987218e-05
1.7390577e-16
1.5987218e-05
2.2433966e-16
1.5987218e-05
1.035263e-16
1.5987218e-05
9.8959463e-17
1.5987218e-05
2.5353621e-16
1.5987218e-05
5.6479548e-16
1.5987218e-05
2.116377e-16
1.5987218e-05
-6.8839663e-16
-7.7280077e-16
0.00014027132
0.00033219462
9.2549242e-05
7.5871547e-05
7.0338072e-05
3.033033e-05
5.9620314e-05
1.489896e-05
5.4019642e-05
7.4663802e-06
5.0795344e-05
4.4028129e-06
4.901105e-05
2.3763576e-06
4.7964745e-05
1.4156621e-06
4.7384385e-05
7.7185304e-07
4.7052234e-05
4.4627694e-07
4.6872682e-05
2.3796784e-07
4.677453e-05
1.3092395e-07
4.6724187e-05
6.6265765e-08
4.6698685e-05
3.3659518e-08
4.6686924e-05
1.5242726e-08
4.6681892e-05
6.4782405e-09
4.6680252e-05
1.9900072e-09
4.6680058e-05
1.464122e-10
4.6680445e-05
-5.969934e-10
4.6680961e-05
-7.356077e-10
4.6681443e-05
-6.7296672e-10
4.6681826e-05
-5.2892555e-10
4.668211e-05
-3.8991642e-10
4.6682309e-05
-2.7173051e-10
4.6682444e-05
-1.835595e-10
4.6682532e-05
-1.2007667e-10
4.6682589e-05
-7.6882573e-11
4.6682624e-05
-4.8099064e-11
4.6682646e-05
-2.9563464e-11
4.6682659e-05
-1.7818151e-11
4.6682667e-05
-1.0555134e-11
4.6682672e-05
-6.1250718e-12
4.6682674e-05
-3.4817682e-12
4.6682676e-05
-1.932565e-12
4.6682676e-05
-1.0467426e-12
4.6682677e-05
-5.4868949e-13
4.6682677e-05
-2.7618052e-13
4.6682677e-05
-1.2927081e-13
4.6682677e-05
-5.3935534e-14
4.6682677e-05
-1.6998944e-14
4.6682677e-05
-7.8508495e-16
4.6682677e-05
6.1175265e-15
4.6682677e-05
8.6836231e-15
4.6682677e-05
8.9436028e-15
4.6682677e-05
6.4491598e-15
4.6682677e-05
2.9746193e-15
4.6682677e-05
9.7389155e-16
4.6682677e-05
1.1424619e-15
4.6682677e-05
2.4500265e-15
4.6682677e-05
3.512062e-15
4.6682677e-05
3.6453032e-15
4.6682677e-05
3.1181956e-15
4.6682677e-05
1.8381843e-15
4.6682677e-05
7.1859749e-16
4.6682677e-05
-1.2990454e-16
4.6682677e-05
-4.9294268e-16
4.6682677e-05
-6.7057832e-16
4.6682677e-05
-5.4004704e-16
4.6682677e-05
-9.2170714e-16
4.6682677e-05
-4.9798809e-16
4.6682677e-05
-9.5545172e-16
4.6682677e-05
-5.9482975e-16
4.6682677e-05
-1.1272912e-15
4.6682677e-05
-1.0575619e-15
4.6682677e-05
-1.9250633e-15
4.6682677e-05
-2.1575894e-15
4.6682677e-05
-2.6252925e-15
4.6682677e-05
-2.2442062e-15
4.6682677e-05
-1.9865648e-15
4.6682677e-05
-1.0901425e-15
4.6682677e-05
-1.279901e-15
4.6682677e-05
-5.0481678e-16
4.6682677e-05
-1.2441093e-15
4.6682677e-05
-9.4483033e-16
4.6682677e-05
-1.6297286e-15
4.6682677e-05
-5.9396428e-16
4.6682677e-05
-8.4010403e-17
4.6682677e-05
1.5223608e-15
4.6682677e-05
1.4487092e-15
4.6682677e-05
1.784809e-15
4.6682677e-05
2.984312e-16
4.6682677e-05
2.2182671e-16
4.6682677e-05
-5.7401357e-16
4.6682677e-05
6.293013e-17
4.6682677e-05
-2.3529052e-16
4.6682677e-05
4.2698755e-16
4.6682677e-05
4.1395769e-17
4.6682677e-05
5.5160698e-16
4.6682677e-05
1.4375657e-16
4.6682677e-05
5.8908615e-16
4.6682677e-05
2.1544935e-16
4.6682677e-05
6.1995853e-16
4.6682677e-05
3.0094498e-16
4.6682677e-05
6.450541e-16
4.6682677e-05
3.357172e-16
4.6682677e-05
5.7531875e-16
4.6682677e-05
1.6496416e-16
4.6682677e-05
2.7377011e-16
4.6682677e-05
-5.0914075e-17
4.6682677e-05
4.2153418e-16
4.6682677e-05
5.1572716e-16
4.6682677e-05
8.120113e-16
4.6682677e-05
-1.5465574e-16
4.6682677e-05
-1.0967612e-15
4.6682677e-05
-2.1467913e-15
4.6682677e-05
-1.726176e-15
4.6682677e-05
-1.9737516e-16
4.6682677e-05
1.8497451e-15
4.6682677e-05
2.5419574e-15
4.6682677e-05
1.996928e-15
4.6682677e-05
2.5178723e-16
4.6682677e-05
-1.4027083e-15
4.6682677e-05
-2.431073e-15
4.6682677e-05
-2.2791505e-15
4.6682677e-05
-1.5340364e-15
4.6682677e-05
-6.1239289e-17
4.6682677e-05
8.7159739e-16
4.6682677e-05
1.6161767e-15
4.6682677e-05
1.7500174e-15
4.6682677e-05
1.4718967e-15
4.6682677e-05
1.1504067e-15
4.6682677e-05
1.1553237e-15
4.6682677e-05
1.1761526e-15
4.6682677e-05
7.6098539e-16
4.6682677e-05
-1.5627058e-16
4.6682677e-05
-1.119435e-15
4.6682677e-05
-1.5768083e-15
4.6682677e-05
-1.4334438e-15
4.6682677e-05
-5.7093353e-16
4.6682677e-05
-9.5960268e-17
4.6682677e-05
1.5359202e-16
4.6682677e-05
-1.366456e-17
4.6682677e-05
-4.7466773e-17
4.6682677e-05
-2.0673468e-16
4.6682677e-05
-8.7700959e-17
4.6682677e-05
-1.5134093e-16
4.6682677e-05
1.5394852e-17
4.6682677e-05
-8.4753243e-17
4.6682677e-05
3.8594753e-17
4.6682677e-05
-1.2315645e-16
4.6682677e-05
-3.0110282e-17
4.6682677e-05
-2.0667062e-16
4.6682677e-05
-1.0940433e-16
4.6682677e-05
-2.8497091e-16
4.6682677e-05
-2.0676087e-16
4.6682677e-05
-3.5727386e-16
4.6682677e-05
-2.3553499e-16
4.6682677e-05
-4.341795e-16
4.6682677e-05
-5.6886865e-16
4.6682677e-05
-8.808432e-16
4.6682677e-05
-5.8100134e-16
4.6682677e-05
-2.0799424e-17
4.6682677e-05
1.0635897e-15
4.6682677e-05
1.7590888e-15
4.6682677e-05
1.9104e-15
4.6682677e-05
1.3362552e-15
4.6682677e-05
6.080083e-16
4.6682677e-05
1.9557067e-16
4.6682677e-05
1.1563067e-16
4.6682677e-05
1.7558587e-16
4.6682677e-05
2.8113497e-16
4.6682677e-05
3.1748633e-16
4.6682677e-05
3.0613668e-16
4.6682677e-05
2.8663199e-16
4.6682677e-05
1.9353217e-16
4.6682677e-05
1.8308327e-16
4.6682677e-05
1.0665668e-16
4.6682677e-05
1.1674906e-16
4.6682677e-05
6.2152143e-17
4.6682677e-05
1.1322127e-16
4.6682677e-05
5.5508599e-17
4.6682677e-05
1.1435038e-16
4.6682677e-05
4.1028105e-17
4.6682677e-05
1.0768408e-16
4.6682677e-05
3.1024335e-17
4.6682677e-05
1.1518907e-16
4.6682677e-05
2.7975525e-17
4.6682677e-05
1.1848089e-16
4.6682677e-05
3.2245378e-17
4.6682677e-05
1.2618852e-16
4.6682677e-05
4.0519469e-17
4.6682677e-05
1.347016e-16
4.6682677e-05
6.7157913e-17
4.6682677e-05
2.048799e-16
4.6682677e-05
1.241423e-16
4.6682677e-05
2.5234146e-16
4.6682677e-05
1.9489241e-16
4.6682677e-05
3.499125e-16
4.6682677e-05
3.044214e-16
4.6682677e-05
5.0549863e-16
4.6682677e-05
6.8373542e-16
4.6682677e-05
1.0079361e-15
4.6682677e-05
8.0740472e-16
4.6682677e-05
2.2794671e-16
4.6682677e-05
-8.712222e-16
4.6682677e-05
-1.6818079e-15
4.6682677e-05
-1.8571948e-15
4.6682677e-05
-1.3469747e-15
4.6682677e-05
-4.8512393e-16
4.6682677e-05
-7.0992609e-17
4.6682677e-05
3.469919e-17
4.6682677e-05
-7.1723386e-17
4.6682677e-05
-1.5337991e-16
4.6682677e-05
-1.9096753e-16
4.6682677e-05
-1.8268493e-16
4.6682677e-05
-1.4816701e-16
4.6682677e-05
-1.5166604e-16
4.6682677e-05
-1.4128543e-16
4.6682677e-05
-1.9595515e-16
4.6682677e-05
-2.5225804e-16
4.6682677e-05
-4.2911597e-16
4.6682677e-05
-4.8735906e-16
4.6682677e-05
-5.5799396e-16
4.6682677e-05
-5.4796032e-16
4.6682677e-05
-7.7333497e-16
4.6682677e-05
-9.5689574e-16
4.6682677e-05
-9.5694905e-16
4.6682677e-05
-3.3139403e-16
4.6682677e-05
6.4170726e-16
4.6682677e-05
1.5971034e-15
4.6682677e-05
1.88081e-15
4.6682677e-05
1.3887175e-15
4.6682677e-05
5.904213e-16
4.6682677e-05
3.0508718e-16
4.6682677e-05
3.5284619e-16
4.6682677e-05
3.2411739e-16
4.6682677e-05
-2.3116241e-16
4.6682677e-05
-1.0120463e-15
4.6682677e-05
-1.8970223e-15
4.6682677e-05
-2.3604977e-15
4.6682677e-05
-2.2008594e-15
4.6682677e-05
-1.5525662e-15
4.6682677e-05
-4.5042469e-16
4.6682677e-05
6.4872985e-16
4.6682677e-05
1.4787076e-15
4.6682677e-05
1.7660264e-15
4.6682677e-05
1.2560725e-15
4.6682677e-05
8.132134e-16
4.6682677e-05
5.3114808e-16
4.6682677e-05
5.2435002e-16
4.6682677e-05
-5.660854e-17
4.6682677e-05
-7.8745001e-16
4.6682677e-05
-1.6470953e-15
4.6682677e-05
-1.8536132e-15
4.6682677e-05
-1.3950175e-15
4.6682677e-05
-7.1576938e-16
4.6682677e-05
-3.6374889e-16
4.6682677e-05
-2.1690681e-16
4.6682677e-05
-2.8984228e-16
4.6682677e-05
-3.375126e-16
4.6682677e-05
-6.2663333e-16
4.6682677e-05
-7.7962934e-16
4.6682677e-05
-6.0773626e-16
4.6682677e-05
1.4545242e-16
4.6682677e-05
1.1194221e-15
4.6682677e-05
1.9333282e-15
4.6682677e-05
2.0662433e-15
4.6682677e-05
1.481552e-15
4.6682677e-05
6.9337512e-16
4.6682677e-05
2.7350276e-16
4.6682677e-05
2.7491817e-16
4.6682677e-05
3.796382e-16
4.6682677e-05
5.5253993e-16
4.6682677e-05
5.1847623e-16
4.6682677e-05
4.9953257e-16
4.6682677e-05
4.5367426e-16
4.6682677e-05
6.3588996e-16
4.6682677e-05
7.3515836e-16
4.6682677e-05
6.555028e-16
4.6682677e-05
2.5474412e-17
4.6682677e-05
-9.1607244e-16
4.6682677e-05
-2.0028968e-15
4.6682677e-05
-2.4164851e-15
4.6682677e-05
-1.8081135e-15
4.6682677e-05
-3.543462e-16
4.6682677e-05
9.6236027e-16
4.6682677e-05
1.8852685e-15
4.6682677e-05
1.9833403e-15
4.6682677e-05
1.3381131e-15
4.6682677e-05
6.4137053e-16
4.6682677e-05
2.7911593e-16
4.6682677e-05
3.2396977e-16
4.6682677e-05
5.1829402e-16
4.6682677e-05
6.7930672e-16
4.6682677e-05
7.9394525e-16
4.6682677e-05
7.7420957e-16
4.6682677e-05
7.4949796e-16
4.6682677e-05
6.5550804e-16
4.6682677e-05
6.0880866e-16
4.6682677e-05
5.1806699e-16
4.6682677e-05
5.2259633e-16
4.6682677e-05
5.3391296e-16
4.6682677e-05
5.8748116e-16
4.6682677e-05
4.1763177e-16
4.6682677e-05
2.8565594e-16
4.6682677e-05
6.1086957e-16
4.6682677e-05
1.3362688e-15
4.6682677e-05
8.5687259e-16
4.6682677e-05
-1.2235001e-15
-1.7888294e-15
0.00019469214
0.00040416928
0.00014360962
0.00012695408
0.00011230147
6.1638477e-05
9.6619294e-05
3.0581142e-05
8.7762221e-05
1.6323454e-05
8.2755406e-05
9.409628e-06
7.9871701e-05
5.2600645e-06
7.8206034e-05
3.0813331e-06
7.7256668e-05
1.7212223e-06
7.6718195e-05
9.8475396e-07
7.6420463e-05
5.3570272e-07
7.6258218e-05
2.9317044e-07
7.6172993e-05
1.5149223e-07
7.61296e-05
7.7053328e-08
7.6108851e-05
3.5991635e-08
7.6099695e-05
1.5633675e-08
7.6096324e-05
5.3605661e-09
7.6095587e-05
8.8288985e-10
7.6095937e-05
-9.4647849e-10
7.6096611e-05
-1.4104135e-09
7.609729e-05
-1.3524149e-09
7.6097854e-05
-1.0924609e-09
7.609828e-05
-8.1606844e-10
7.6098584e-05
-5.7521874e-10
7.6098791e-05
-3.9116776e-10
7.6098929e-05
-2.5759536e-10
7.6099018e-05
-1.6570072e-10
7.6099074e-05
-1.0418054e-10
7.6099108e-05
-6.4282061e-11
7.609913e-05
-3.8906841e-11
7.6099142e-05
-2.3133709e-11
7.609915e-05
-1.3490532e-11
7.6099154e-05
-7.7119674e-12
7.6099156e-05
-4.310471e-12
7.6099157e-05
-2.3505746e-12
7.6099158e-05
-1.2432817e-12
7.6099158e-05
-6.3212859e-13
7.6099159e-05
-3.0305298e-13
7.6099159e-05
-1.3209738e-13
7.6099159e-05
-4.7613495e-14
7.6099159e-05
-8.9522778e-15
7.6099159e-05
7.0906967e-15
7.6099159e-05
1.2983417e-14
7.6099159e-05
1.3121062e-14
7.6099159e-05
1.0003716e-14
7.6099159e-05
5.7053308e-15
7.6099159e-05
3.5492188e-15
7.6099159e-05
2.9842992e-15
7.6099159e-05
4.2722019e-15
7.6099159e-05
4.5830545e-15
7.6099159e-05
5.0125964e-15
7.6099159e-05
4.2453857e-15
7.6099159e-05
3.355498e-15
7.6099159e-05
1.938198e-15
7.6099159e-05
1.1104058e-15
7.6099159e-05
3.5394402e-16
7.6099159e-05
5.105191e-17
7.6099159e-05
-3.7196944e-16
7.6099159e-05
-1.0141919e-16
7.6099159e-05
-2.3797907e-16
7.6099159e-05
-1.7406305e-16
7.6099159e-05
-2.3124165e-16
7.6099159e-05
-3.8803047e-16
7.6099159e-05
-6.3222944e-16
7.6099159e-05
-1.2075289e-15
7.6099159e-05
-1.5944394e-15
7.6099159e-05
-1.9589e-15
7.6099159e-05
-1.6212431e-15
7.6099159e-05
-1.2171146e-15
7.6099159e-05
-6.7917243e-16
7.6099159e-05
-3.0794228e-16
7.6099159e-05
-1.431012e-16
7.6099159e-05
-3.2714108e-16
7.6099159e-05
-4.7565055e-16
7.6099159e-05
-5.443788e-16
7.6099159e-05
1.228026e-16
7.6099159e-05
9.8492676e-16
7.6099159e-05
1.9623087e-15
7.6099159e-05
2.0248586e-15
7.6099159e-05
1.5854678e-15
7.6099159e-05
4.3417598e-16
7.6099159e-05
-3.1145094e-16
7.6099159e-05
-7.491457e-16
7.6099159e-05
-6.6364028e-16
7.6099159e-05
-5.623502e-16
7.6099159e-05
-3.1204689e-16
7.6099159e-05
-2.7020496e-16
7.6099159e-05
-1.2607458e-16
7.6099159e-05
-1.3952711e-16
7.6099159e-05
-5.0837789e-17
7.6099159e-05
-8.076317e-17
7.6099159e-05
-1.3789616e-17
7.6099159e-05
-3.5582927e-17
7.6099159e-05
-1.5277396e-17
7.6099159e-05
-6.4515681e-17
7.6099159e-05
-1.4799917e-16
7.6099159e-05
-3.3920627e-16
7.6099159e-05
-4.8005626e-16
7.6099159e-05
-5.1519684e-16
7.6099159e-05
-3.2253126e-16
7.6099159e-05
-9.2150041e-17
7.6099159e-05
-1.0802351e-16
7.6099159e-05
-9.9312414e-16
7.6099159e-05
-2.0352719e-15
7.6099159e-05
-2.6716619e-15
7.6099159e-05
-2.0147303e-15
7.6099159e-05
-1.2247007e-16
7.6099159e-05
2.002455e-15
7.6099159e-05
2.7592167e-15
7.6099159e-05
2.0989659e-15
7.6099159e-05
3.293937e-16
7.6099159e-05
-1.5493677e-15
7.6099159e-05
-2.499683e-15
7.6099159e-05
-2.3604716e-15
7.6099159e-05
-1.2281478e-15
7.6099159e-05
3.607394e-16
7.6099159e-05
1.4336102e-15
7.6099159e-05
2.0667198e-15
7.6099159e-05
1.9533081e-15
7.6099159e-05
1.3607857e-15
7.6099159e-05
8.4767111e-16
7.6099159e-05
5.4106022e-16
7.6099159e-05
3.9116835e-16
7.6099159e-05
-2.3019194e-16
7.6099159e-05
-1.0197849e-15
7.6099159e-05
-1.8606329e-15
7.6099159e-05
-1.8779895e-15
7.6099159e-05
-1.4739519e-15
7.6099159e-05
-3.598587e-16
7.6099159e-05
2.6802699e-16
7.6099159e-05
6.8205457e-16
7.6099159e-05
5.9702649e-16
7.6099159e-05
6.2307614e-16
7.6099159e-05
4.5234242e-16
7.6099159e-05
5.8366187e-16
7.6099159e-05
4.8696585e-16
7.6099159e-05
6.7197163e-16
7.6099159e-05
5.4507171e-16
7.6099159e-05
6.9096058e-16
7.6099159e-05
5.0541084e-16
7.6099159e-05
6.2326588e-16
7.6099159e-05
4.1962781e-16
7.6099159e-05
5.3857165e-16
7.6099159e-05
3.3016672e-16
7.6099159e-05
4.269263e-16
7.6099159e-05
2.4764323e-16
7.6099159e-05
3.7158567e-16
7.6099159e-05
1.2370628e-16
7.6099159e-05
2.0725079e-17
7.6099159e-05
-2.2489412e-16
7.6099159e-05
1.7853856e-16
7.6099159e-05
7.9906932e-16
7.6099159e-05
1.7401345e-15
7.6099159e-05
2.211747e-15
7.6099159e-05
2.0026321e-15
7.6099159e-05
1.1700293e-15
7.6099159e-05
2.723426e-16
7.6099159e-05
-3.0714259e-16
7.6099159e-05
-4.7905244e-16
7.6099159e-05
-4.7586875e-16
7.6099159e-05
-3.9602895e-16
7.6099159e-05
-3.530096e-16
7.6099159e-05
-3.7293104e-16
7.6099159e-05
-3.6650993e-16
7.6099159e-05
-4.5370266e-16
7.6099159e-05
-4.6438947e-16
7.6099159e-05
-5.2957218e-16
7.6099159e-05
-5.1756278e-16
7.6099159e-05
-5.7799417e-16
7.6099159e-05
-5.2680216e-16
7.6099159e-05
-5.9549229e-16
7.6099159e-05
-5.3585799e-16
7.6099159e-05
-6.219752e-16
7.6099159e-05
-5.5151331e-16
7.6099159e-05
-6.4861557e-16
7.6099159e-05
-5.5358336e-16
7.6099159e-05
-6.6913477e-16
7.6099159e-05
-5.5518377e-16
7.6099159e-05
-6.7440893e-16
7.6099159e-05
-5.5570142e-16
7.6099159e-05
-6.664266e-16
7.6099159e-05
-5.5377298e-16
7.6099159e-05
-6.292965e-16
7.6099159e-05
-4.8372669e-16
7.6099159e-05
-5.6906733e-16
7.6099159e-05
-4.312385e-16
7.6099159e-05
-4.8432171e-16
7.6099159e-05
-3.1799883e-16
7.6099159e-05
-3.4939203e-16
7.6099159e-05
-1.0950965e-16
7.6099159e-05
4.6076621e-17
7.6099159e-05
3.1644378e-16
7.6099159e-05
-2.3135752e-17
7.6099159e-05
-6.7251303e-16
7.6099159e-05
-1.6590782e-15
7.6099159e-05
-2.2505897e-15
7.6099159e-05
-2.0548571e-15
7.6099159e-05
-1.2741009e-15
7.6099159e-05
-2.4194379e-16
7.6099159e-05
3.2807651e-16
7.6099159e-05
5.5964632e-16
7.6099159e-05
5.1243585e-16
7.6099159e-05
4.6051388e-16
7.6099159e-05
4.1932445e-16
7.6099159e-05
4.2645315e-16
7.6099159e-05
4.5307291e-16
7.6099159e-05
4.5776466e-16
7.6099159e-05
4.6374106e-16
7.6099159e-05
4.2551447e-16
7.6099159e-05
3.5973496e-16
7.6099159e-05
2.1118499e-16
7.6099159e-05
1.5587148e-16
7.6099159e-05
8.8329826e-17
7.6099159e-05
7.3130567e-17
7.6099159e-05
-1.6268587e-16
7.6099159e-05
-3.0744563e-16
7.6099159e-05
-2.0676286e-16
7.6099159e-05
4.8811419e-16
7.6099159e-05
1.4129554e-15
7.6099159e-05
2.1456102e-15
7.6099159e-05
2.0848089e-15
7.6099159e-05
1.3505013e-15
7.6099159e-05
3.3728234e-16
7.6099159e-05
-9.4668178e-17
7.6099159e-05
-2.7495356e-16
7.6099159e-05
-4.7302571e-16
7.6099159e-05
-1.076971e-15
7.6099159e-05
-1.8073434e-15
7.6099159e-05
-2.418191e-15
7.6099159e-05
-2.5960662e-15
7.6099159e-05
-2.0644329e-15
7.6099159e-05
-1.0984106e-15
7.6099159e-05
1.8586419e-16
7.6099159e-05
1.4161343e-15
7.6099159e-05
1.9776282e-15
7.6099159e-05
2.0584436e-15
7.6099159e-05
1.2097916e-15
7.6099159e-05
5.8047303e-16
7.6099159e-05
2.5817983e-17
7.6099159e-05
-2.3578749e-16
7.6099159e-05
-9.246059e-16
7.6099159e-05
-1.6311879e-15
7.6099159e-05
-2.1945412e-15
7.6099159e-05
-2.0656037e-15
7.6099159e-05
-1.331671e-15
7.6099159e-05
-4.1977006e-16
7.6099159e-05
5.3364883e-17
7.6099159e-05
3.6307924e-16
7.6099159e-05
3.0376785e-16
7.6099159e-05
2.7095774e-16
7.6099159e-05
-3.0882199e-17
7.6099159e-05
-1.0637738e-16
7.6099159e-05
1.6926234e-16
7.6099159e-05
9.7262488e-16
7.6099159e-05
1.8534804e-15
7.6099159e-05
2.4226709e-15
7.6099159e-05
2.2343262e-15
7.6099159e-05
1.3831297e-15
7.6099159e-05
3.952009e-16
7.6099159e-05
-1.6559048e-16
7.6099159e-05
-3.2171015e-16
7.6099159e-05
-2.5196263e-16
7.6099159e-05
-1.2403632e-16
7.6099159e-05
-1.3643893e-16
7.6099159e-05
-1.4689085e-16
7.6099159e-05
-1.3283864e-16
7.6099159e-05
3.5515738e-17
7.6099159e-05
8.6854177e-17
7.6099159e-05
-9.5079643e-17
7.6099159e-05
-7.7722503e-16
7.6099159e-05
-1.6738257e-15
7.6099159e-05
-2.5201763e-15
7.6099159e-05
-2.4916977e-15
7.6099159e-05
-1.5426441e-15
7.6099159e-05
1.4150681e-16
7.6099159e-05
1.509799e-15
7.6099159e-05
2.2621072e-15
7.6099159e-05
2.1231798e-15
7.6099159e-05
1.209554e-15
7.6099159e-05
3.1370507e-16
7.6099159e-05
-2.1561364e-16
7.6099159e-05
-3.2511945e-16
7.6099159e-05
-1.6969596e-16
7.6099159e-05
-4.2886317e-17
7.6099159e-05
1.0338458e-16
7.6099159e-05
8.4690526e-17
7.6099159e-05
8.9986737e-17
7.6099159e-05
-4.9356321e-17
7.6099159e-05
-5.3148145e-17
7.6099159e-05
-1.8756201e-16
7.6099159e-05
-1.284466e-16
7.6099159e-05
-1.5626768e-16
7.6099159e-05
-8.143037e-17
7.6099159e-05
-2.9657626e-16
7.6099159e-05
-3.1699899e-16
7.6099159e-05
4.5908921e-17
7.6099159e-05
6.3398181e-16
7.6099159e-05
-1.4576317e-16
7.6099159e-05
-2.0145231e-15
-1.9341483e-15
0.00023312986
0.00043770622
0.00018548526
0.00017459868
0.00015018421
9.693954e-05
0.0001310242
4.9741153e-05
0.00011965162
2.7696029e-05
0.0001131446
1.5916647e-05
0.00010931814
9.0865277e-06
0.00010710183
5.2976511e-06
0.0001058215
3.0015692e-06
0.00010509347
1.7127921e-06
0.00010468612
9.4305686e-07
0.00010446306
5.1623535e-07
0.00010434425
2.7031099e-07
0.00010428311
1.3819102e-07
0.00010425319
6.5911742e-08
0.00010423959
2.9232517e-08
0.0001042342
1.0751088e-08
0.00010423268
2.4036968e-09
0.00010423281
-1.0815934e-09
0.00010423352
-2.1169697e-09
0.00010423431
-2.1446487e-09
0.000104235
-1.7796575e-09
0.00010423553
-1.3481191e-09
0.00010423592
-9.6033112e-10
0.00010423618
-6.5758826e-10
0.00010423636
-4.3571415e-10
0.00010423648
-2.8159377e-10
0.00010423655
-1.7785329e-10
0.0001042366
-1.1016256e-10
0.00010423662
-6.6938521e-11
0.00010423664
-3.9954318e-11
0.00010423665
-2.340195e-11
0.00010423666
-1.3442933e-11
0.00010423666
-7.5553459e-12
0.00010423666
-4.1448807e-12
0.00010423666
-2.2080246e-12
0.00010423666
-1.1350282e-12
0.00010423666
-5.5378983e-13
0.00010423666
-2.4955886e-13
0.00010423666
-9.6880534e-14
0.00010423666
-2.5603047e-14
0.00010423666
4.8394135e-15
0.00010423666
1.5150239e-14
0.00010423666
1.6070341e-14
0.00010423666
1.239903e-14
0.00010423666
8.3132552e-15
0.00010423666
6.4720815e-15
0.00010423666
6.1756236e-15
0.00010423666
6.4991203e-15
0.00010423666
6.4882847e-15
0.00010423666
6.5095651e-15
0.00010423666
6.1522928e-15
0.00010423666
5.0931745e-15
0.00010423666
3.8320692e-15
0.00010423666
2.6755356e-15
0.00010423666
1.7505448e-15
0.00010423666
1.20846e-15
0.00010423666
1.2288014e-15
0.00010423666
9.9688687e-16
0.00010423666
1.3529813e-15
0.00010423666
9.2110026e-16
0.00010423666
1.1598628e-15
0.00010423666
5.218873e-16
0.00010423666
5.0620437e-16
0.00010423666
-4.5262985e-16
0.00010423666
-6.2724331e-16
0.00010423666
-1.0421874e-15
0.00010423666
-4.1837273e-16
0.00010423666
5.7938369e-17
0.00010423666
1.0571563e-15
0.00010423666
9.3428706e-16
0.00010423666
1.5924954e-15
0.00010423666
9.1436612e-16
0.00010423666
1.3842994e-15
0.00010423666
1.057637e-15
0.00010423666
2.1651544e-15
0.00010423666
2.3900165e-15
0.00010423666
3.2907933e-15
0.00010423666
2.20576e-15
0.00010423666
1.7568539e-15
0.00010423666
-2.8282075e-16
0.00010423666
-7.2844836e-16
0.00010423666
-1.9374152e-15
0.00010423666
-1.5823842e-15
0.00010423666
-2.0223927e-15
0.00010423666
-1.3595559e-15
0.00010423666
-1.7004766e-15
0.00010423666
-1.1295633e-15
0.00010423666
-1.5039231e-15
0.00010423666
-1.0497777e-15
0.00010423666
-1.4248459e-15
0.00010423666
-1.047881e-15
0.00010423666
-1.4070258e-15
0.00010423666
-1.1267152e-15
0.00010423666
-1.4892078e-15
0.00010423666
-1.3450125e-15
0.00010423666
-1.825746e-15
0.00010423666
-1.7240819e-15
0.00010423666
-1.9992975e-15
0.00010423666
-1.5190838e-15
0.00010423666
-1.6240899e-15
0.00010423666
-1.6517359e-15
0.00010423666
-2.7961089e-15
0.00010423666
-3.5014468e-15
0.00010423666
-3.853809e-15
0.00010423666
-2.4980752e-15
0.00010423666
-4.5606877e-16
0.00010423666
1.7660699e-15
0.00010423666
2.442877e-15
0.00010423666
1.7594663e-15
0.00010423666
-6.2624761e-17
0.00010423666
-1.7910795e-15
0.00010423666
-2.6224409e-15
0.00010423666
-1.9424874e-15
0.00010423666
-6.8870811e-16
0.00010423666
1.3534489e-15
0.00010423666
2.4144815e-15
0.00010423666
2.8020831e-15
0.00010423666
2.1442945e-15
0.00010423666
9.9645055e-16
0.00010423666
-1.108365e-16
0.00010423666
-8.4661566e-16
0.00010423666
-1.4425562e-15
0.00010423666
-2.1582919e-15
0.00010423666
-2.8301121e-15
0.00010423666
-3.09297e-15
0.00010423666
-2.4532041e-15