/*--------------------------------*- C++ -*----------------------------------*\
| =========                 |                                                 |
| \\      /  F ield         | OpenFOAM: The Open Source CFD Toolbox           |
|  \\    /   O peration     | Version:  2206                                  |
|   \\  /    A nd           | Website:  www.openfoam.com                      |
|    \\/     M anipulation  |                                                 |
\*---------------------------------------------------------------------------*/
FoamFile
{
    version     2.0;
    format      ascii;
    arch        "LSB;label=32;scalar=64";
    class       volVectorField;
    location    "18";
    object      U;
}
// * * * * * * * * * * * * * * * * * * * * * * * * * * * * * * * * * * * * * //

dimensions      [0 1 -1 0 0 0 0];

internalField   nonuniform List<vector> 
15000
(
(0.15962853 0.053997676 0)
(0.11557193 0.0064916391 0)
(0.064251359 0.0014144206 0)
(0.055918597 0.00074960308 0)
(0.047595816 0.00028827252 0)
(0.044708799 0.00019884774 0)
(0.042412495 9.0526169e-05 0)
(0.041406639 6.0131184e-05 0)
(0.040707477 2.8981608e-05 0)
(0.040376991 1.8020879e-05 0)
(0.040167798 8.6622863e-06 0)
(0.04006866 4.995127e-06 0)
(0.040011054 2.2665742e-06 0)
(0.039985308 1.1728092e-06 0)
(0.039971973 4.4595609e-07 0)
(0.039967049 1.734973e-07 0)
(0.03996518 1.3964078e-08 0)
(0.039965127 -3.0176227e-08 0)
(0.039965544 -4.8583457e-08 0)
(0.039966152 -4.3138138e-08 0)
(0.03996668 -3.5641777e-08 0)
(0.039967111 -2.5953054e-08 0)
(0.039967422 -1.8481526e-08 0)
(0.039967642 -1.2425347e-08 0)
(0.03996779 -8.235139e-09 0)
(0.039967887 -5.2689729e-09 0)
(0.039967949 -3.3264635e-09 0)
(0.039967988 -2.0459232e-09 0)
(0.039968012 -1.2419657e-09 0)
(0.039968026 -7.3766231e-10 0)
(0.039968035 -4.3132157e-10 0)
(0.03996804 -2.459629e-10 0)
(0.039968042 -1.3698708e-10 0)
(0.039968044 -7.4037471e-11 0)
(0.039968045 -3.895256e-11 0)
(0.039968045 -1.9698198e-11 0)
(0.039968045 -9.355275e-12 0)
(0.039968046 -3.883229e-12 0)
(0.039968046 -1.1379944e-12 0)
(0.039968046 9.2730571e-14 0)
(0.039968046 5.5357897e-13 0)
(0.039968046 7.1853035e-13 0)
(0.039968046 8.7946642e-13 0)
(0.039968046 8.3614304e-13 0)
(0.039968046 5.8526209e-13 0)
(0.039968046 1.667833e-13 0)
(0.039968046 7.4775733e-15 0)
(0.039968046 1.4580042e-14 0)
(0.039968046 2.7797381e-13 0)
(0.039968046 3.4448675e-13 0)
(0.039968046 4.4558361e-13 0)
(0.039968046 3.3276928e-13 0)
(0.039968046 2.5614035e-13 0)
(0.039968046 7.7049536e-14 0)
(0.039968046 9.645952e-15 0)
(0.039968046 -7.3047773e-14 0)
(0.039968046 -8.3858566e-14 0)
(0.039968046 -1.6421239e-13 0)
(0.039968046 -9.4833725e-14 0)
(0.039968046 -1.4797471e-13 0)
(0.039968046 -1.0636317e-13 0)
(0.039968046 -1.3432508e-13 0)
(0.039968046 -1.2754843e-13 0)
(0.039968046 -1.6537027e-13 0)
(0.039968046 -2.1343321e-13 0)
(0.039968046 -2.5792736e-13 0)
(0.039968046 -2.9308833e-13 0)
(0.039968046 -2.5581456e-13 0)
(0.039968046 -2.0681124e-13 0)
(0.039968046 -1.6890161e-13 0)
(0.039968046 -1.0884792e-13 0)
(0.039968046 -1.2213452e-13 0)
(0.039968046 -1.1771604e-13 0)
(0.039968046 -1.6700864e-13 0)
(0.039968046 -1.5985098e-13 0)
(0.039968046 -9.9113103e-14 0)
(0.039968046 4.1497378e-14 0)
(0.039968046 1.6453964e-13 0)
(0.039968046 2.3385501e-13 0)
(0.039968046 1.858337e-13 0)
(0.039968046 9.3149866e-14 0)
(0.039968046 -6.3938634e-15 0)
(0.039968046 -1.4250804e-14 0)
(0.039968046 -2.1476186e-14 0)
(0.039968046 2.3860793e-14 0)
(0.039968046 2.6970679e-14 0)
(0.039968046 5.6621002e-14 0)
(0.039968046 4.6418271e-14 0)
(0.039968046 6.6521033e-14 0)
(0.039968046 5.3978075e-14 0)
(0.039968046 7.2538896e-14 0)
(0.039968046 6.1736315e-14 0)
(0.039968046 8.0452299e-14 0)
(0.039968046 6.6783491e-14 0)
(0.039968046 8.182123e-14 0)
(0.039968046 5.7065265e-14 0)
(0.039968046 5.5035288e-14 0)
(0.039968046 2.2195552e-14 0)
(0.039968046 3.8157374e-14 0)
(0.039968046 4.1819228e-14 0)
(0.039968046 9.0470938e-14 0)
(0.039968046 8.3825908e-14 0)
(0.039968046 -5.2928366e-15 0)
(0.039968046 -1.5472589e-13 0)
(0.039968046 -2.4123599e-13 0)
(0.039968046 -2.0369117e-13 0)
(0.039968046 1.1859747e-14 0)
(0.039968046 2.5647782e-13 0)
(0.039968046 3.4537078e-13 0)
(0.039968046 2.6580196e-13 0)
(0.039968046 5.8094925e-14 0)
(0.039968046 -1.6784334e-13 0)
(0.039968046 -2.8374119e-13 0)
(0.039968046 -2.9413038e-13 0)
(0.039968046 -1.660446e-13 0)
(0.039968046 -1.7213274e-15 0)
(0.039968046 1.3130566e-13 0)
(0.039968046 2.1333263e-13 0)
(0.039968046 2.3408247e-13 0)
(0.039968046 1.8954452e-13 0)
(0.039968046 1.604727e-13 0)
(0.039968046 1.450784e-13 0)
(0.039968046 1.5353814e-13 0)
(0.039968046 8.0775182e-14 0)
(0.039968046 -1.8758784e-14 0)
(0.039968046 -1.5637527e-13 0)
(0.039968046 -1.9066878e-13 0)
(0.039968046 -1.7970628e-13 0)
(0.039968046 -6.7903226e-14 0)
(0.039968046 -1.3389762e-14 0)
(0.039968046 2.0876087e-14 0)
(0.039968046 -2.6654102e-15 0)
(0.039968046 -2.9227168e-15 0)
(0.039968046 -2.7061269e-14 0)
(0.039968046 -8.3488011e-15 0)
(0.039968046 -2.1355609e-14 0)
(0.039968046 4.1310636e-15 0)
(0.039968046 -1.4274686e-14 0)
(0.039968046 6.0613207e-15 0)
(0.039968046 -2.0375382e-14 0)
(0.039968046 -3.6953444e-15 0)
(0.039968046 -3.1706012e-14 0)
(0.039968046 -1.5023462e-14 0)
(0.039968046 -4.2760195e-14 0)
(0.039968046 -2.8153415e-14 0)
(0.039968046 -5.2161454e-14 0)
(0.039968046 -3.3621898e-14 0)
(0.039968046 -6.5104364e-14 0)
(0.039968046 -7.8402981e-14 0)
(0.039968046 -1.1763728e-13 0)
(0.039968046 -7.5863216e-14 0)
(0.039968046 1.7463665e-15 0)
(0.039968046 1.3127017e-13 0)
(0.039968046 2.1988241e-13 0)
(0.039968046 2.3088914e-13 0)
(0.039968046 1.5628344e-13 0)
(0.039968046 6.979922e-14 0)
(0.039968046 1.3532036e-14 0)
(0.039968046 7.2923884e-15 0)
(0.039968046 1.3468268e-14 0)
(0.039968046 2.660427e-14 0)
(0.039968046 3.2671478e-14 0)
(0.039968046 3.0464874e-14 0)
(0.039968046 3.0892295e-14 0)
(0.039968046 1.9283718e-14 0)
(0.039968046 1.5113872e-14 0)
(0.039968046 6.9885397e-15 0)
(0.039968046 8.1833662e-15 0)
(0.039968046 1.5490646e-15 0)
(0.039968046 8.5886468e-15 0)
(0.039968046 9.7856961e-16 0)
(0.039968046 9.2274944e-15 0)
(0.039968046 -7.4911774e-16 0)
(0.039968046 9.2345266e-15 0)
(0.039968046 -2.6144274e-15 0)
(0.039968046 1.1046974e-14 0)
(0.039968046 -4.6683577e-15 0)
(0.039968046 1.1367958e-14 0)
(0.039968046 -5.4445896e-15 0)
(0.039968046 1.1784491e-14 0)
(0.039968046 -3.3032235e-15 0)
(0.039968046 1.301746e-14 0)
(0.039968046 2.5324388e-15 0)
(0.039968046 2.2950848e-14 0)
(0.039968046 1.1686471e-14 0)
(0.039968046 2.9670417e-14 0)
(0.039968046 2.1365843e-14 0)
(0.039968046 4.1944297e-14 0)
(0.039968046 3.5362187e-14 0)
(0.039968046 6.5284191e-14 0)
(0.039968046 8.5627227e-14 0)
(0.039968046 1.3032108e-13 0)
(0.039968046 9.7988909e-14 0)
(0.039968046 2.0574993e-14 0)
(0.039968046 -1.126475e-13 0)
(0.039968046 -2.1515571e-13 0)
(0.039968046 -2.2992366e-13 0)
(0.039968046 -1.6383469e-13 0)
(0.039968046 -6.1435605e-14 0)
(0.039968046 -9.9853963e-15 0)
(0.039968046 3.2095135e-15 0)
(0.039968046 -1.0747427e-14 0)
(0.039968046 -1.9884104e-14 0)
(0.039968046 -2.4170836e-14 0)
(0.039968046 -2.1560506e-14 0)
(0.039968046 -1.6693434e-14 0)
(0.039968046 -1.5485528e-14 0)
(0.039968046 -1.56479e-14 0)
(0.039968046 -2.032029e-14 0)
(0.039968046 -3.086817e-14 0)
(0.039968046 -4.8934019e-14 0)
(0.039968046 -5.9511405e-14 0)
(0.039968046 -6.7590484e-14 0)
(0.039968046 -7.0281365e-14 0)
(0.039968046 -9.8889921e-14 0)
(0.039968046 -1.226619e-13 0)
(0.039968046 -1.1660468e-13 0)
(0.039968046 -3.485924e-14 0)
(0.039968046 9.0893844e-14 0)
(0.039968046 2.0785491e-13 0)
(0.039968046 2.364483e-13 0)
(0.039968046 1.7953473e-13 0)
(0.039968046 7.4177763e-14 0)
(0.039968046 4.4265503e-14 0)
(0.039968046 4.3290065e-14 0)
(0.039968046 3.6281053e-14 0)
(0.039968046 -3.284346e-14 0)
(0.039968046 -1.3783455e-13 0)
(0.039968046 -2.3693329e-13 0)
(0.039968046 -3.0050418e-13 0)
(0.039968046 -2.7636783e-13 0)
(0.039968046 -1.86913e-13 0)
(0.039968046 -5.4227835e-14 0)
(0.039968046 1.0143458e-13 0)
(0.039968046 1.8496164e-13 0)
(0.039968046 2.3132193e-13 0)
(0.039968046 1.5894005e-13 0)
(0.039968046 1.0817941e-13 0)
(0.039968046 6.9745333e-14 0)
(0.039968046 5.9925731e-14 0)
(0.039968046 -1.1867979e-14 0)
(0.039968046 -1.1433773e-13 0)
(0.039968046 -2.0936046e-13 0)
(0.039968046 -2.3278385e-13 0)
(0.039968046 -1.7551088e-13 0)
(0.039968046 -8.4278283e-14 0)
(0.039968046 -4.6945171e-14 0)
(0.039968046 -2.0140565e-14 0)
(0.039968046 -3.1796965e-14 0)
(0.039968046 -3.4528215e-14 0)
(0.039968046 -7.0481815e-14 0)
(0.039968046 -8.5717585e-14 0)
(0.039968046 -5.7930076e-14 0)
(0.039968046 4.0903534e-14 0)
(0.039968046 1.6474778e-13 0)
(0.039968046 2.5930006e-13 0)
(0.039968046 2.7439037e-13 0)
(0.039968046 1.9804134e-13 0)
(0.039968046 9.8092063e-14 0)
(0.039968046 4.745666e-14 0)
(0.039968046 4.0010504e-14 0)
(0.039968046 5.6757344e-14 0)
(0.039968046 7.3272153e-14 0)
(0.039968046 7.1738417e-14 0)
(0.039968046 6.6316406e-14 0)
(0.039968046 6.6246811e-14 0)
(0.039968046 8.6641479e-14 0)
(0.039968046 9.9039762e-14 0)
(0.039968046 8.2591452e-14 0)
(0.039968046 8.015402e-16 0)
(0.039968046 -1.240508e-13 0)
(0.039968046 -2.6045435e-13 0)
(0.039968046 -3.0101211e-13 0)
(0.039968046 -2.2595636e-13 0)
(0.039968046 -4.0114915e-14 0)
(0.039968046 1.2662384e-13 0)
(0.039968046 2.3345288e-13 0)
(0.039968046 2.4876706e-13 0)
(0.039968046 1.6708432e-13 0)
(0.039968046 7.9847258e-14 0)
(0.039968046 3.8840975e-14 0)
(0.039968046 3.9165262e-14 0)
(0.039968046 6.7755044e-14 0)
(0.039968046 8.261633e-14 0)
(0.039968046 1.0174386e-13 0)
(0.039968046 9.7093047e-14 0)
(0.039968046 9.9727555e-14 0)
(0.039968046 7.8685392e-14 0)
(0.039968046 8.1353574e-14 0)
(0.039968046 6.0395902e-14 0)
(0.039968046 7.0491744e-14 0)
(0.039968046 6.3391508e-14 0)
(0.039968046 7.6484379e-14 0)
(0.039968046 4.4950428e-14 0)
(0.039968046 4.1135473e-14 0)
(0.039968046 8.2019613e-14 0)
(0.039968046 1.6906418e-13 0)
(0.039968046 7.981446e-14 0)
(0.039968046 -1.6641721e-13 0)
(0.039968046 -2.0495408e-13 0)
(0.36732383 0.14062829 0)
(0.29754389 0.025079377 0)
(0.1860793 0.0083694642 0)
(0.16132807 0.0041218842 0)
(0.13901859 0.0019375932 0)
(0.13040448 0.0011770369 0)
(0.12396461 0.0006111392 0)
(0.12095999 0.00037192629 0)
(0.1189454 0.00019726956 0)
(0.11794826 0.00011564236 0)
(0.11733081 6.0259363e-05 0)
(0.11702581 3.3413771e-05 0)
(0.11685066 1.6509207e-05 0)
(0.11676842 8.3903285e-06 0)
(0.1167257 3.6614166e-06 0)
(0.11670834 1.5196649e-06 0)
(0.1167012 3.9888827e-07 0)
(0.11669986 -2.8192878e-08 0)
(0.1167004 -1.9888755e-07 0)
(0.11670175 -2.156325e-07 0)
(0.11670304 -1.9003592e-07 0)
(0.11670415 -1.4577936e-07 0)
(0.11670497 -1.0621913e-07 0)
(0.11670557 -7.3229997e-08 0)
(0.11670597 -4.9162086e-08 0)
(0.11670624 -3.1950564e-08 0)
(0.11670642 -2.0366577e-08 0)
(0.11670653 -1.2678823e-08 0)
(0.11670659 -7.7631801e-09 0)
(0.11670664 -4.6590727e-09 0)
(0.11670666 -2.7492261e-09 0)
(0.11670667 -1.5875776e-09 0)
(0.11670668 -8.9742606e-10 0)
(0.11670669 -4.9466032e-10 0)
(0.11670669 -2.6590002e-10 0)
(0.11670669 -1.3809432e-10 0)
(0.11670669 -6.8534328e-11 0)
(0.11670669 -3.1241458e-11 0)
(0.11670669 -1.2255381e-11 0)
(0.11670669 -3.136903e-12 0)
(0.11670669 7.3078054e-13 0)
(0.11670669 2.3211637e-12 0)
(0.11670669 3.0347586e-12 0)
(0.11670669 3.0207425e-12 0)
(0.11670669 2.1505988e-12 0)
(0.11670669 8.5212358e-13 0)
(0.11670669 2.0290839e-13 0)
(0.11670669 2.4593837e-13 0)
(0.11670669 8.7196932e-13 0)
(0.11670669 1.1956837e-12 0)
(0.11670669 1.3546946e-12 0)
(0.11670669 1.0941347e-12 0)
(0.11670669 7.129292e-13 0)
(0.11670669 2.3854702e-13 0)
(0.11670669 -3.9688839e-14 0)
(0.11670669 -2.1430487e-13 0)
(0.11670669 -2.6483368e-13 0)
(0.11670669 -3.3636336e-13 0)
(0.11670669 -3.3621941e-13 0)
(0.11670669 -3.0686325e-13 0)
(0.11670669 -3.5746375e-13 0)
(0.11670669 -3.0956104e-13 0)
(0.11670669 -4.2024041e-13 0)
(0.11670669 -4.5070622e-13 0)
(0.11670669 -7.0549751e-13 0)
(0.11670669 -8.1364474e-13 0)
(0.11670669 -9.6472799e-13 0)
(0.11670669 -8.3542995e-13 0)
(0.11670669 -7.1931059e-13 0)
(0.11670669 -4.7020961e-13 0)
(0.11670669 -4.403923e-13 0)
(0.11670669 -2.7963308e-13 0)
(0.11670669 -4.4114833e-13 0)
(0.11670669 -4.3471503e-13 0)
(0.11670669 -5.8522993e-13 0)
(0.11670669 -2.7622683e-13 0)
(0.11670669 1.0983442e-14 0)
(0.11670669 5.3199953e-13 0)
(0.11670669 6.1241285e-13 0)
(0.11670669 6.303156e-13 0)
(0.11670669 1.8980489e-13 0)
(0.11670669 4.8050669e-14 0)
(0.11670669 -1.3519279e-13 0)
(0.11670669 -1.4288818e-15 0)
(0.11670669 -9.379739e-15 0)
(0.11670669 1.4167992e-13 0)
(0.11670669 9.2678625e-14 0)
(0.11670669 1.9301633e-13 0)
(0.11670669 1.2708689e-13 0)
(0.11670669 2.1020382e-13 0)
(0.11670669 1.5039594e-13 0)
(0.11670669 2.2663186e-13 0)
(0.11670669 1.7920673e-13 0)
(0.11670669 2.3949596e-13 0)
(0.11670669 1.8883495e-13 0)
(0.11670669 2.1277832e-13 0)
(0.11670669 1.1808191e-13 0)
(0.11670669 1.0198122e-13 0)
(0.11670669 4.803855e-14 0)
(0.11670669 1.5902264e-13 0)
(0.11670669 2.4122608e-13 0)
(0.11670669 3.0400359e-13 0)
(0.11670669 -2.3793835e-14 0)
(0.11670669 -4.23478e-13 0)
(0.11670669 -7.69006e-13 0)
(0.11670669 -6.3462826e-13 0)
(0.11670669 -2.7458181e-14 0)
(0.11670669 7.3277804e-13 0)
(0.11670669 9.9799309e-13 0)
(0.11670669 7.7787108e-13 0)
(0.11670669 1.3132313e-13 0)
(0.11670669 -5.206338e-13 0)
(0.11670669 -8.9684531e-13 0)
(0.11670669 -8.7961324e-13 0)
(0.11670669 -5.5722182e-13 0)
(0.11670669 -2.6526311e-14 0)
(0.11670669 3.4708743e-13 0)
(0.11670669 6.1830228e-13 0)
(0.11670669 6.7809876e-13 0)
(0.11670669 5.6703553e-13 0)
(0.11670669 4.6433826e-13 0)
(0.11670669 4.5257428e-13 0)
(0.11670669 4.7260799e-13 0)
(0.11670669 2.9316474e-13 0)
(0.11670669 -3.9555387e-14 0)
(0.11670669 -4.3287774e-13 0)
(0.11670669 -5.83985e-13 0)
(0.11670669 -5.442902e-13 0)
(0.11670669 -2.1731403e-13 0)
(0.11670669 -4.62064e-14 0)
(0.11670669 4.901694e-14 0)
(0.11670669 -1.9516859e-14 0)
(0.11670669 -2.9272759e-14 0)
(0.11670669 -9.4161946e-14 0)
(0.11670669 -4.448619e-14 0)
(0.11670669 -7.4032931e-14 0)
(0.11670669 -5.4455358e-15 0)
(0.11670669 -4.9763952e-14 0)
(0.11670669 2.265343e-15 0)
(0.11670669 -6.5580776e-14 0)
(0.11670669 -2.5013896e-14 0)
(0.11670669 -9.8198677e-14 0)
(0.11670669 -5.6567125e-14 0)
(0.11670669 -1.2933672e-13 0)
(0.11670669 -9.4733853e-14 0)
(0.11670669 -1.5722824e-13 0)
(0.11670669 -1.0745927e-13 0)
(0.11670669 -1.8988318e-13 0)
(0.11670669 -2.3752486e-13 0)
(0.11670669 -3.5755067e-13 0)
(0.11670669 -2.4101962e-13 0)
(0.11670669 -1.8637756e-14 0)
(0.11670669 3.8913531e-13 0)
(0.11670669 6.6052051e-13 0)
(0.11670669 7.1455373e-13 0)
(0.11670669 4.9860017e-13 0)
(0.11670669 2.3220845e-13 0)
(0.11670669 7.3170875e-14 0)
(0.11670669 4.9488915e-14 0)
(0.11670669 7.2208002e-14 0)
(0.11670669 1.1270559e-13 0)
(0.11670669 1.2819712e-13 0)
(0.11670669 1.2266861e-13 0)
(0.11670669 1.1795385e-13 0)
(0.11670669 8.2420567e-14 0)
(0.11670669 7.4478255e-14 0)
(0.11670669 4.7060132e-14 0)
(0.11670669 5.0604024e-14 0)
(0.11670669 3.0337585e-14 0)
(0.11670669 5.0360457e-14 0)
(0.11670669 2.8407822e-14 0)
(0.11670669 5.152054e-14 0)
(0.11670669 2.3151802e-14 0)
(0.11670669 5.0420029e-14 0)
(0.11670669 1.8902145e-14 0)
(0.11670669 5.448242e-14 0)
(0.11670669 1.6096991e-14 0)
(0.11670669 5.5793104e-14 0)
(0.11670669 1.6367133e-14 0)
(0.11670669 5.8138316e-14 0)
(0.11670669 2.0770363e-14 0)
(0.11670669 6.1415537e-14 0)
(0.11670669 3.3753522e-14 0)
(0.11670669 8.9349999e-14 0)
(0.11670669 5.778893e-14 0)
(0.11670669 1.0811659e-13 0)
(0.11670669 8.5252983e-14 0)
(0.11670669 1.4505056e-13 0)
(0.11670669 1.2700731e-13 0)
(0.11670669 2.0817959e-13 0)
(0.11670669 2.7419677e-13 0)
(0.11670669 4.0368711e-13 0)
(0.11670669 3.2170953e-13 0)
(0.11670669 9.5995343e-14 0)
(0.11670669 -3.2010615e-13 0)
(0.11670669 -6.3468553e-13 0)
(0.11670669 -6.9876924e-13 0)
(0.11670669 -5.0813755e-13 0)
(0.11670669 -1.923922e-13 0)
(0.11670669 -3.8111532e-14 0)
(0.11670669 -4.9647932e-16 0)
(0.11670669 -4.2698008e-14 0)
(0.11670669 -7.3315658e-14 0)
(0.11670669 -8.7017408e-14 0)
(0.11670669 -8.1809845e-14 0)
(0.11670669 -6.7788342e-14 0)
(0.11670669 -6.7356184e-14 0)
(0.11670669 -6.540821e-14 0)
(0.11670669 -8.3610541e-14 0)
(0.11670669 -1.0927671e-13 0)
(0.11670669 -1.7193981e-13 0)
(0.11670669 -1.9848402e-13 0)
(0.11670669 -2.2436721e-13 0)
(0.11670669 -2.248444e-13 0)
(0.11670669 -3.1044874e-13 0)
(0.11670669 -3.8214538e-13 0)
(0.11670669 -3.7682164e-13 0)
(0.11670669 -1.3605715e-13 0)
(0.11670669 2.4157545e-13 0)
(0.11670669 6.0617688e-13 0)
(0.11670669 7.1124501e-13 0)
(0.11670669 5.3579199e-13 0)
(0.11670669 2.295714e-13 0)
(0.11670669 1.3142089e-13 0)
(0.11670669 1.4561789e-13 0)
(0.11670669 1.344449e-13 0)
(0.11670669 -7.4757631e-14 0)
(0.11670669 -3.8474327e-13 0)
(0.11670669 -7.1015263e-13 0)
(0.11670669 -8.9941231e-13 0)
(0.11670669 -8.4108183e-13 0)
(0.11670669 -5.9177525e-13 0)
(0.11670669 -1.8428845e-13 0)
(0.11670669 2.5592753e-13 0)
(0.11670669 5.5005744e-13 0)
(0.11670669 6.7766162e-13 0)
(0.11670669 4.7901642e-13 0)
(0.11670669 3.2130894e-13 0)
(0.11670669 2.1632963e-13 0)
(0.11670669 2.0820574e-13 0)
(0.11670669 -8.3404156e-15 0)
(0.11670669 -3.0320715e-13 0)
(0.11670669 -6.1895641e-13 0)
(0.11670669 -7.0105462e-13 0)
(0.11670669 -5.3342414e-13 0)
(0.11670669 -2.7265645e-13 0)
(0.11670669 -1.5078019e-13 0)
(0.11670669 -8.8049214e-14 0)
(0.11670669 -1.199077e-13 0)
(0.11670669 -1.3432131e-13 0)
(0.11670669 -2.4371456e-13 0)
(0.11670669 -2.9868252e-13 0)
(0.11670669 -2.2782969e-13 0)
(0.11670669 6.353574e-14 0)
(0.11670669 4.415133e-13 0)
(0.11670669 7.4617981e-13 0)
(0.11670669 8.0108618e-13 0)
(0.11670669 5.8096852e-13 0)
(0.11670669 2.8439961e-13 0)
(0.11670669 1.3057624e-13 0)
(0.11670669 1.2403682e-13 0)
(0.11670669 1.6986007e-13 0)
(0.11670669 2.2978135e-13 0)
(0.11670669 2.2024166e-13 0)
(0.11670669 2.0846096e-13 0)
(0.11670669 1.9719513e-13 0)
(0.11670669 2.6328403e-13 0)
(0.11670669 3.0239903e-13 0)
(0.11670669 2.6606957e-13 0)
(0.11670669 2.4062184e-14 0)
(0.11670669 -3.4552373e-13 0)
(0.11670669 -7.6316712e-13 0)
(0.11670669 -9.1439477e-13 0)
(0.11670669 -6.9237326e-13 0)
(0.11670669 -1.4037597e-13 0)
(0.11670669 3.6259588e-13 0)
(0.11670669 7.0434569e-13 0)
(0.11670669 7.5062163e-13 0)
(0.11670669 5.0985665e-13 0)
(0.11670669 2.4984072e-13 0)
(0.11670669 1.2167591e-13 0)
(0.11670669 1.3554704e-13 0)
(0.11670669 2.1618197e-13 0)
(0.11670669 2.7165457e-13 0)
(0.11670669 3.2073351e-13 0)
(0.11670669 3.1055395e-13 0)
(0.11670669 3.0768658e-13 0)
(0.11670669 2.6092064e-13 0)
(0.11670669 2.5300782e-13 0)
(0.11670669 2.0708375e-13 0)
(0.11670669 2.1968463e-13 0)
(0.11670669 2.1387781e-13 0)
(0.11670669 2.4195643e-13 0)
(0.11670669 1.6548341e-13 0)
(0.11670669 1.2907121e-13 0)
(0.11670669 2.5162115e-13 0)
(0.11670669 5.2521788e-13 0)
(0.11670669 3.145345e-13 0)
(0.11670669 -4.6389916e-13 0)
(0.11670669 -6.5002056e-13 0)
(0.50390834 0.19019021 0)
(0.43847039 0.050431496 0)
(0.29767008 0.022055317 0)
(0.25944374 0.010780111 0)
(0.22598939 0.0055621567 0)
(0.21213187 0.0032308171 0)
(0.20205719 0.0017733051 0)
(0.19716897 0.0010457484 0)
(0.19394744 0.00057679923 0)
(0.19230772 0.00033133432 0)
(0.19130242 0.00017832702 0)
(0.19079327 9.7722847e-05 0)
(0.19050201 4.991866e-05 0)
(0.1903612 2.5322493e-05 0)
(0.19028763 1.1616892e-05 0)
(0.19025609 4.966773e-06 0)
(0.1902425 1.5952706e-06 0)
(0.19023894 1.7306117e-07 0)
(0.19023899 -3.9976853e-07 0)
(0.19024063 -5.2223478e-07 0)
(0.19024241 -4.8459782e-07 0)
(0.19024402 -3.8451538e-07 0)
(0.19024524 -2.8461139e-07 0)
(0.19024615 -1.9913479e-07 0)
(0.19024677 -1.3478957e-07 0)
(0.19024719 -8.8375689e-08 0)
(0.19024746 -5.6665677e-08 0)
(0.19024763 -3.5511084e-08 0)
(0.19024774 -2.185255e-08 0)
(0.1902478 -1.3189167e-08 0)
(0.19024784 -7.8219641e-09 0)
(0.19024787 -4.5471461e-09 0)
(0.19024788 -2.5902966e-09 0)
(0.19024789 -1.4416658e-09 0)
(0.19024789 -7.8269212e-10 0)
(0.19024789 -4.1163399e-10 0)
(0.1902479 -2.0784119e-10 0)
(0.1902479 -9.8270611e-11 0)
(0.1902479 -4.1757832e-11 0)
(0.1902479 -1.4027763e-11 0)
(0.1902479 -1.6145243e-12 0)
(0.1902479 3.5265383e-12 0)
(0.1902479 5.4126016e-12 0)
(0.1902479 5.4470022e-12 0)
(0.1902479 4.0143058e-12 0)
(0.1902479 2.0460025e-12 0)
(0.1902479 1.0131493e-12 0)
(0.1902479 9.5587968e-13 0)
(0.1902479 1.6596491e-12 0)
(0.1902479 2.0398832e-12 0)
(0.1902479 2.1965951e-12 0)
(0.1902479 1.8666097e-12 0)
(0.1902479 1.3067461e-12 0)
(0.1902479 6.5307624e-13 0)
(0.1902479 2.1813156e-13 0)
(0.1902479 -5.6977952e-14 0)
(0.1902479 -1.7495613e-13 0)
(0.1902479 -2.5502269e-13 0)
(0.1902479 -2.8324206e-13 0)
(0.1902479 -2.1196419e-13 0)
(0.1902479 -3.1179436e-13 0)
(0.1902479 -2.3213407e-13 0)
(0.1902479 -4.1107429e-13 0)
(0.1902479 -4.4947991e-13 0)
(0.1902479 -8.2600039e-13 0)
(0.1902479 -9.7940834e-13 0)
(0.1902479 -1.196089e-12 0)
(0.1902479 -1.0095354e-12 0)
(0.1902479 -8.4354277e-13 0)
(0.1902479 -4.732544e-13 0)
(0.1902479 -4.3391451e-13 0)
(0.1902479 -1.8972382e-13 0)
(0.1902479 -4.2892853e-13 0)
(0.1902479 -3.9017491e-13 0)
(0.1902479 -5.9202202e-13 0)
(0.1902479 -1.5139769e-13 0)
(0.1902479 2.0782526e-13 0)
(0.1902479 8.9187495e-13 0)
(0.1902479 8.9919863e-13 0)
(0.1902479 8.7997001e-13 0)
(0.1902479 1.9784986e-13 0)
(0.1902479 -1.2026345e-14 0)
(0.1902479 -3.2746078e-13 0)
(0.1902479 -1.4114368e-13 0)
(0.1902479 -1.8636109e-13 0)
(0.1902479 4.5227765e-14 0)
(0.1902479 -4.0840844e-14 0)
(0.1902479 1.234021e-13 0)
(0.1902479 1.6637123e-14 0)
(0.1902479 1.5103311e-13 0)
(0.1902479 4.8901523e-14 0)
(0.1902479 1.6878667e-13 0)
(0.1902479 8.263373e-14 0)
(0.1902479 1.7627242e-13 0)
(0.1902479 8.5753034e-14 0)
(0.1902479 1.2751561e-13 0)
(0.1902479 -2.5742701e-14 0)
(0.1902479 -3.5133914e-14 0)
(0.1902479 -1.2594499e-13 0)
(0.1902479 4.5406696e-14 0)
(0.1902479 1.3243641e-13 0)
(0.1902479 2.1015195e-13 0)
(0.1902479 -2.6954743e-13 0)
(0.1902479 -7.9215155e-13 0)
(0.1902479 -1.235363e-12 0)
(0.1902479 -9.6447584e-13 0)
(0.1902479 -8.1906987e-14 0)
(0.1902479 9.9725406e-13 0)
(0.1902479 1.370373e-12 0)
(0.1902479 1.0567495e-12 0)
(0.1902479 1.458844e-13 0)
(0.1902479 -7.692334e-13 0)
(0.1902479 -1.2843035e-12 0)
(0.1902479 -1.2077622e-12 0)
(0.1902479 -7.2596428e-13 0)
(0.1902479 6.6686868e-14 0)
(0.1902479 5.8881549e-13 0)
(0.1902479 9.4984482e-13 0)
(0.1902479 9.6081825e-13 0)
(0.1902479 7.409942e-13 0)
(0.1902479 5.283037e-13 0)
(0.1902479 4.5828682e-13 0)
(0.1902479 4.3121457e-13 0)
(0.1902479 1.6798899e-13 0)
(0.1902479 -2.8016775e-13 0)
(0.1902479 -7.602913e-13 0)
(0.1902479 -8.9261232e-13 0)
(0.1902479 -7.5599815e-13 0)
(0.1902479 -2.4780167e-13 0)
(0.1902479 3.5144108e-14 0)
(0.1902479 2.0262379e-13 0)
(0.1902479 1.3414409e-13 0)
(0.1902479 1.2957741e-13 0)
(0.1902479 4.4192744e-14 0)
(0.1902479 1.0852584e-13 0)
(0.1902479 6.8356418e-14 0)
(0.1902479 1.5905308e-13 0)
(0.1902479 1.0123864e-13 0)
(0.1902479 1.7047234e-13 0)
(0.1902479 8.1248811e-14 0)
(0.1902479 1.3525188e-13 0)
(0.1902479 3.7468028e-14 0)
(0.1902479 9.307201e-14 0)
(0.1902479 -5.4972995e-15 0)
(0.1902479 3.9338624e-14 0)
(0.1902479 -4.5023497e-14 0)
(0.1902479 1.867023e-14 0)
(0.1902479 -9.5494515e-14 0)
(0.1902479 -1.586275e-13 0)
(0.1902479 -3.0507402e-13 0)
(0.1902479 -1.2722431e-13 0)
(0.1902479 1.8050809e-13 0)
(0.1902479 7.1331078e-13 0)
(0.1902479 1.0231026e-12 0)
(0.1902479 1.0153071e-12 0)
(0.1902479 6.5396555e-13 0)
(0.1902479 2.3653404e-13 0)
(0.1902479 -1.5852113e-14 0)
(0.1902479 -7.7552556e-14 0)
(0.1902479 -5.8517365e-14 0)
(0.1902479 -8.8486236e-15 0)
(0.1902479 1.2044293e-14 0)
(0.1902479 3.9811843e-15 0)
(0.1902479 -2.0246704e-16 0)
(0.1902479 -4.7812399e-14 0)
(0.1902479 -5.4259731e-14 0)
(0.1902479 -9.1166303e-14 0)
(0.1902479 -8.6109438e-14 0)
(0.1902479 -1.15391e-13 0)
(0.1902479 -8.9010265e-14 0)
(0.1902479 -1.2104562e-13 0)
(0.1902479 -9.0504853e-14 0)
(0.1902479 -1.3124979e-13 0)
(0.1902479 -9.5752217e-14 0)
(0.1902479 -1.4001676e-13 0)
(0.1902479 -9.3815994e-14 0)
(0.1902479 -1.4544532e-13 0)
(0.1902479 -9.2673535e-14 0)
(0.1902479 -1.4526439e-13 0)
(0.1902479 -9.0539355e-14 0)
(0.1902479 -1.4091986e-13 0)
(0.1902479 -8.7862037e-14 0)
(0.1902479 -1.2455115e-13 0)
(0.1902479 -5.1950249e-14 0)
(0.1902479 -9.4640271e-14 0)
(0.1902479 -2.6391627e-14 0)
(0.1902479 -5.5028916e-14 0)
(0.1902479 2.7577466e-14 0)
(0.1902479 7.3532577e-15 0)
(0.1902479 1.2028115e-13 0)
(0.1902479 2.0800818e-13 0)
(0.1902479 3.6431872e-13 0)
(0.1902479 2.2940974e-13 0)
(0.1902479 -8.9062796e-14 0)
(0.1902479 -6.3795523e-13 0)
(0.1902479 -1.0101367e-12 0)
(0.1902479 -1.0124525e-12 0)
(0.1902479 -6.8173191e-13 0)
(0.1902479 -1.9452138e-13 0)
(0.1902479 5.662844e-14 0)
(0.1902479 1.4038336e-13 0)
(0.1902479 9.8257837e-14 0)
(0.1902479 6.210486e-14 0)
(0.1902479 4.1390474e-14 0)
(0.1902479 4.5630572e-14 0)
(0.1902479 6.1732426e-14 0)
(0.1902479 6.1976439e-14 0)
(0.1902479 6.5897491e-14 0)
(0.1902479 4.1625711e-14 0)
(0.1902479 9.3773373e-15 0)
(0.1902479 -7.5088249e-14 0)
(0.1902479 -1.0515691e-13 0)
(0.1902479 -1.4041968e-13 0)
(0.1902479 -1.4151811e-13 0)
(0.1902479 -2.6010607e-13 0)
(0.1902479 -3.4687531e-13 0)
(0.1902479 -3.2327313e-13 0)
(0.1902479 1.6751007e-14 0)
(0.1902479 5.1629422e-13 0)
(0.1902479 9.6277779e-13 0)
(0.1902479 1.0278611e-12 0)
(0.1902479 7.1369732e-13 0)
(0.1902479 2.4728565e-13 0)
(0.1902479 6.504548e-14 0)
(0.1902479 3.728559e-14 0)
(0.1902479 -1.5941478e-14 0)
(0.1902479 -3.160546e-13 0)
(0.1902479 -7.1606639e-13 0)
(0.1902479 -1.1103537e-12 0)
(0.1902479 -1.2842982e-12 0)
(0.1902479 -1.1120804e-12 0)
(0.1902479 -7.0016994e-13 0)
(0.1902479 -8.7611029e-14 0)
(0.1902479 5.1939068e-13 0)
(0.1902479 8.8749887e-13 0)
(0.1902479 9.8870684e-13 0)
(0.1902479 6.4202023e-13 0)
(0.1902479 3.6698925e-13 0)
(0.1902479 1.5802081e-13 0)
(0.1902479 9.612684e-14 0)
(0.1902479 -2.2963654e-13 0)
(0.1902479 -6.1039048e-13 0)
(0.1902479 -9.8764205e-13 0)
(0.1902479 -1.01509e-12 0)
(0.1902479 -7.1038607e-13 0)
(0.1902479 -3.0180341e-13 0)
(0.1902479 -9.145709e-14 0)
(0.1902479 2.1901065e-14 0)
(0.1902479 -1.3511672e-14 0)
(0.1902479 -3.5283555e-14 0)
(0.1902479 -1.8755746e-13 0)
(0.1902479 -2.4970773e-13 0)
(0.1902479 -1.3677614e-13 0)
(0.1902479 2.6794977e-13 0)
(0.1902479 7.5916004e-13 0)
(0.1902479 1.1244247e-12 0)
(0.1902479 1.1168754e-12 0)
(0.1902479 7.4835523e-13 0)
(0.1902479 2.9145845e-13 0)
(0.1902479 4.1307648e-14 0)
(0.1902479 4.980335e-15 0)
(0.1902479 5.2617738e-14 0)
(0.1902479 1.3100737e-13 0)
(0.1902479 1.1910227e-13 0)
(0.1902479 1.1025968e-13 0)
(0.1902479 1.0109096e-13 0)
(0.1902479 1.9176197e-13 0)
(0.1902479 2.3309809e-13 0)
(0.1902479 1.6795934e-13 0)
(0.1902479 -1.718512e-13 0)
(0.1902479 -6.5623784e-13 0)
(0.1902479 -1.1655776e-12 0)
(0.1902479 -1.2756108e-12 0)
(0.1902479 -8.7692185e-13 0)
(0.1902479 -6.8232952e-14 0)
(0.1902479 6.3142812e-13 0)
(0.1902479 1.0699739e-12 0)
(0.1902479 1.0653642e-12 0)
(0.1902479 6.6509514e-13 0)
(0.1902479 2.5549043e-13 0)
(0.1902479 2.9825119e-14 0)
(0.1902479 1.7572114e-14 0)
(0.1902479 1.1072213e-13 0)
(0.1902479 1.859116e-13 0)
(0.1902479 2.5302144e-13 0)
(0.1902479 2.4300931e-13 0)
(0.1902479 2.3766871e-13 0)
(0.1902479 1.7764525e-13 0)
(0.1902479 1.6410664e-13 0)
(0.1902479 1.0611043e-13 0)
(0.1902479 1.2186777e-13 0)
(0.1902479 1.1786638e-13 0)
(0.1902479 1.5109716e-13 0)
(0.1902479 5.1852298e-14 0)
(0.1902479 1.0135069e-14 0)
(0.1902479 1.869535e-13 0)
(0.1902479 5.3161865e-13 0)
(0.1902479 2.1337764e-13 0)
(0.1902479 -8.2296977e-13 0)
(0.1902479 -9.6143358e-13 0)
(0.59346672 0.21467329 0)
(0.54593347 0.075998401 0)
(0.39702192 0.039312299 0)
(0.34953974 0.019720567 0)
(0.30792187 0.01072675 0)
(0.28963523 0.0061583932 0)
(0.27651264 0.003476199 0)
(0.26994405 0.0020291157 0)
(0.26565503 0.0011409964 0)
(0.26342423 0.000651409 0)
(0.26206335 0.00035633293 0)
(0.26136077 0.00019487192 0)
(0.26095907 0.00010129201 0)
(0.26076048 5.1589371e-05 0)
(0.260656 2.4314527e-05 0)
(0.26060945 1.0642912e-05 0)
(0.26058866 3.760043e-06 0)
(0.26058217 7.1144413e-07 0)
(0.26058122 -5.4252908e-07 0)
(0.26058278 -8.8395717e-07 0)
(0.2605848 -8.6420766e-07 0)
(0.26058673 -7.0520492e-07 0)
(0.26058825 -5.2947187e-07 0)
(0.26058939 -3.7471745e-07 0)
(0.26059018 -2.5546611e-07 0)
(0.26059072 -1.6862912e-07 0)
(0.26059108 -1.0866054e-07 0)
(0.2605913 -6.8437404e-08 0)
(0.26059144 -4.228817e-08 0)
(0.26059153 -2.5633596e-08 0)
(0.26059159 -1.5264245e-08 0)
(0.26059162 -8.9171751e-09 0)
(0.26059163 -5.1077066e-09 0)
(0.26059165 -2.861323e-09 0)
(0.26059165 -1.5640709e-09 0)
(0.26059165 -8.2958153e-10 0)
(0.26059166 -4.2377971e-10 0)
(0.26059166 -2.0473817e-10 0)
(0.26059166 -9.06266e-11 0)
(0.26059166 -3.3835153e-11 0)
(0.26059166 -7.6435189e-12 0)
(0.26059166 3.3539611e-12 0)
(0.26059166 7.145282e-12 0)
(0.26059166 7.3138313e-12 0)
(0.26059166 5.5568295e-12 0)
(0.26059166 3.4147693e-12 0)
(0.26059166 2.4068939e-12 0)
(0.26059166 2.2304936e-12 0)
(0.26059166 2.6918418e-12 0)
(0.26059166 2.8169415e-12 0)
(0.26059166 2.9476491e-12 0)
(0.26059166 2.6636447e-12 0)
(0.26059166 2.1545097e-12 0)
(0.26059166 1.4664155e-12 0)
(0.26059166 9.5732461e-13 0)
(0.26059166 5.3287603e-13 0)
(0.26059166 3.1703477e-13 0)
(0.26059166 2.151051e-13 0)
(0.26059166 2.1660164e-13 0)
(0.26059166 2.7461463e-13 0)
(0.26059166 1.7617792e-13 0)
(0.26059166 2.2487613e-13 0)
(0.26059166 2.1937804e-14 0)
(0.26059166 -3.7943187e-14 0)
(0.26059166 -4.3108878e-13 0)
(0.26059166 -5.7316832e-13 0)
(0.26059166 -7.7427835e-13 0)
(0.26059166 -5.3013333e-13 0)
(0.26059166 -3.0933465e-13 0)
(0.26059166 8.4525664e-14 0)
(0.26059166 1.4353803e-13 0)
(0.26059166 3.5653405e-13 0)
(0.26059166 1.337285e-13 0)
(0.26059166 2.1203672e-13 0)
(0.26059166 1.0490616e-13 0)
(0.26059166 5.5947554e-13 0)
(0.26059166 8.5341475e-13 0)
(0.26059166 1.3549161e-12 0)
(0.26059166 1.1000357e-12 0)
(0.26059166 8.7751576e-13 0)
(0.26059166 4.7435036e-14 0)
(0.26059166 -2.6071147e-13 0)
(0.26059166 -6.8700799e-13 0)
(0.26059166 -5.712386e-13 0)
(0.26059166 -6.5678039e-13 0)
(0.26059166 -4.2171982e-13 0)
(0.26059166 -4.9904795e-13 0)
(0.26059166 -3.1634681e-13 0)
(0.26059166 -4.1781116e-13 0)
(0.26059166 -2.7731439e-13 0)
(0.26059166 -3.8316931e-13 0)
(0.26059166 -2.6726122e-13 0)