/*--------------------------------*- C++ -*----------------------------------*\
| =========                 |                                                 |
| \\      /  F ield         | OpenFOAM: The Open Source CFD Toolbox           |
|  \\    /   O peration     | Version:  2206                                  |
|   \\  /    A nd           | Website:  www.openfoam.com                      |
|    \\/     M anipulation  |                                                 |
\*---------------------------------------------------------------------------*/
FoamFile
{
    version     2.0;
    format      ascii;
    arch        "LSB;label=32;scalar=64";
    class       surfaceScalarField;
    location    "30";
    object      phi;
}
// * * * * * * * * * * * * * * * * * * * * * * * * * * * * * * * * * * * * * //

dimensions      [0 3 -1 0 0 0 0];

oriented        oriented;

internalField   nonuniform List<scalar> 
29650
(
6.0867647e-05
0.00020579915
3.2718169e-05
2.8149472e-05
2.4599021e-05
8.1191391e-06
2.0417849e-05
4.1811623e-06
1.8552178e-05
1.8656611e-06
1.7373701e-05
1.1784691e-06
1.6781662e-05
5.9203179e-07
1.6412316e-05
3.6934237e-07
1.6220821e-05
1.9149317e-07
1.6106686e-05
1.1413621e-07
1.6048258e-05
5.8430341e-08
1.6015474e-05
3.2786397e-08
1.5999541e-05
1.5934161e-08
1.5991376e-05
8.1667682e-09
1.5987889e-05
3.4875181e-09
1.598644e-05
1.4486848e-09
1.5986091e-05
3.4958974e-10
1.5986138e-05
-4.8109823e-11
1.598635e-05
-2.1136612e-10
1.5986569e-05
-2.2014583e-10
1.5986762e-05
-1.9248658e-10
1.5986908e-05
-1.4627099e-10
1.5987014e-05
-1.0625123e-10
1.5987087e-05
-7.2857089e-11
1.5987136e-05
-4.8766143e-11
1.5987167e-05
-3.1561345e-11
1.5987187e-05
-2.006997e-11
1.59872e-05
-1.245749e-11
1.5987208e-05
-7.6119608e-12
1.5987212e-05
-4.555301e-12
1.5987215e-05
-2.6834947e-12
1.5987216e-05
-1.5478553e-12
1.5987217e-05
-8.7696221e-13
1.5987218e-05
-4.8373832e-13
1.5987218e-05
-2.5981611e-13
1.5987218e-05
-1.3369393e-13
1.5987218e-05
-6.587393e-14
1.5987218e-05
-2.9576941e-14
1.5987218e-05
-1.1046094e-14
1.5987218e-05
-2.4090126e-15
1.5987218e-05
1.3353329e-15
1.5987218e-05
2.1172591e-15
1.5987218e-05
2.4439459e-15
1.5987218e-05
2.1015456e-15
1.5987218e-05
2.0944553e-15
1.5987218e-05
7.6025499e-16
1.5987218e-05
-2.13321e-16
1.5987218e-05
-1.0770515e-15
1.5987218e-05
-1.3997196e-15
1.5987218e-05
-1.0887221e-15
1.5987218e-05
-1.3897283e-15
1.5987218e-05
-8.6594444e-16
1.5987218e-05
-1.077822e-15
1.5987218e-05
-9.8311832e-16
1.5987218e-05
-1.3070619e-15
1.5987218e-05
-1.6997214e-15
1.5987218e-05
-1.8040679e-15
1.5987218e-05
-1.3858398e-15
1.5987218e-05
-2.4468032e-15
1.5987218e-05
-1.2489869e-15
1.5987218e-05
-1.9738187e-15
1.5987218e-05
-1.0045033e-15
1.5987218e-05
-1.6494746e-15
1.5987218e-05
-9.7245542e-16
1.5987218e-05
-1.556345e-15
1.5987218e-05
-1.2228232e-15
1.5987218e-05
-1.5991952e-15
1.5987218e-05
-1.0772044e-15
1.5987218e-05
-7.6171531e-16
1.5987218e-05
2.4093745e-16
1.5987218e-05
-1.9482872e-18
1.5987218e-05
8.8728402e-16
1.5987218e-05
6.4408677e-16
1.5987218e-05
1.1849593e-15
1.5987218e-05
9.1698913e-16
1.5987218e-05
1.1896667e-15
1.5987218e-05
9.6282964e-16
1.5987218e-05
1.1226321e-15
1.5987218e-05
9.8113774e-16
1.5987218e-05
1.0974972e-15
1.5987218e-05
1.0335282e-15
1.5987218e-05
1.1202167e-15
1.5987218e-05
1.1041767e-15
1.5987218e-05
1.1550983e-15
1.5987218e-05
1.1712243e-15
1.5987218e-05
1.1972484e-15
1.5987218e-05
1.2463252e-15
1.5987218e-05
1.245787e-15
1.5987218e-05
1.3083683e-15
1.5987218e-05
1.2730998e-15
1.5987218e-05
1.3547667e-15
1.5987218e-05
1.2916424e-15
1.5987218e-05
1.3850806e-15
1.5987218e-05
1.2624803e-15
1.5987218e-05
1.3718546e-15
1.5987218e-05
1.2334324e-15
1.5987218e-05
1.4036019e-15
1.5987218e-05
1.2184256e-15
1.5987218e-05
1.3638177e-15
1.5987218e-05
1.1755685e-15
1.5987218e-05
1.4260432e-15
1.5987218e-05
1.3071485e-15
1.5987218e-05
1.5417024e-15
1.5987218e-05
1.1935994e-15
1.5987218e-05
1.121942e-15
1.5987218e-05
4.0044574e-16
1.5987218e-05
2.0695136e-16
1.5987218e-05
-4.3699872e-16
1.5987218e-05
-3.6508513e-16
1.5987218e-05
-6.9057613e-16
1.5987218e-05
-5.8758672e-16
1.5987218e-05
-8.4633701e-16
1.5987218e-05
-8.7952774e-16
1.5987218e-05
-1.1140685e-15
1.5987218e-05
-8.3818922e-16
1.5987218e-05
-1.0270698e-15
1.5987218e-05
-7.8062968e-16
1.5987218e-05
-9.4534406e-16
1.5987218e-05
-7.4239804e-16
1.5987218e-05
-8.6984807e-16
1.5987218e-05
-7.0506463e-16
1.5987218e-05
-8.3957793e-16
1.5987218e-05
-7.1682752e-16
1.5987218e-05
-8.5943803e-16
1.5987218e-05
-7.5375804e-16
1.5987218e-05
-8.9633531e-16
1.5987218e-05
-8.0382019e-16
1.5987218e-05
-9.4723381e-16
1.5987218e-05
-8.6756185e-16
1.5987218e-05
-1.0014898e-15
1.5987218e-05
-9.3390903e-16
1.5987218e-05
-1.0490303e-15
1.5987218e-05
-9.9080852e-16
1.5987218e-05
-1.0836283e-15
1.5987218e-05
-1.0378205e-15
1.5987218e-05
-1.1064686e-15
1.5987218e-05
-1.0711549e-15
1.5987218e-05
-1.1158705e-15
1.5987218e-05
-1.0925002e-15
1.5987218e-05
-1.1159532e-15
1.5987218e-05
-1.1028041e-15
1.5987218e-05
-1.1051371e-15
1.5987218e-05
-1.1027352e-15
1.5987218e-05
-1.0820939e-15
1.5987218e-05
-1.0795852e-15
1.5987218e-05
-1.0361032e-15
1.5987218e-05
-1.0555895e-15
1.5987218e-05
-1.0274412e-15
1.5987218e-05
-1.0541915e-15
1.5987218e-05
-9.813827e-16
1.5987218e-05
-9.7535607e-16
1.5987218e-05
-9.3942265e-16
1.5987218e-05
-1.0806176e-15
1.5987218e-05
-1.114691e-15
1.5987218e-05
-1.1007279e-15
1.5987218e-05
-8.243249e-16
1.5987218e-05
-4.5719495e-16
1.5987218e-05
5.0175758e-17
1.5987218e-05
3.7550079e-16
1.5987218e-05
6.9399956e-16
1.5987218e-05
8.19943e-16
1.5987218e-05
9.0050314e-16
1.5987218e-05
9.0517027e-16
1.5987218e-05
9.1739408e-16
1.5987218e-05
8.8133248e-16
1.5987218e-05
8.9686775e-16
1.5987218e-05
8.6930039e-16
1.5987218e-05
8.8103748e-16
1.5987218e-05
8.6709187e-16
1.5987218e-05
8.7636415e-16
1.5987218e-05
8.6488461e-16
1.5987218e-05
8.7062625e-16
1.5987218e-05
8.5989623e-16
1.5987218e-05
8.6158673e-16
1.5987218e-05
8.5372372e-16
1.5987218e-05
8.5181193e-16
1.5987218e-05
8.4957802e-16
1.5987218e-05
8.4435846e-16
1.5987218e-05
8.4865e-16
1.5987218e-05
8.4300562e-16
1.5987218e-05
8.5231775e-16
1.5987218e-05
8.4563274e-16
1.5987218e-05
8.4276826e-16
1.5987218e-05
8.4011493e-16
1.5987218e-05
8.4330575e-16
1.5987218e-05
8.5172392e-16
1.5987218e-05
8.5624503e-16
1.5987218e-05
8.6048499e-16
1.5987218e-05
8.2782586e-16
1.5987218e-05
7.886546e-16
1.5987218e-05
7.9679891e-16
1.5987218e-05
8.8003425e-16
1.5987218e-05
9.68024e-16
1.5987218e-05
9.8590933e-16
1.5987218e-05
7.8084377e-16
1.5987218e-05
4.4525348e-16
1.5987218e-05
-1.807068e-17
1.5987218e-05
-4.2275195e-16
1.5987218e-05
-7.5138706e-16
1.5987218e-05
-9.0973745e-16
1.5987218e-05
-9.549807e-16
1.5987218e-05
-8.8285945e-16
1.5987218e-05
-9.0094411e-16
1.5987218e-05
-8.9705778e-16
1.5987218e-05
-9.9294476e-16
1.5987218e-05
-8.8344983e-16
1.5987218e-05
-7.1749971e-16
1.5987218e-05
-2.8153314e-16
1.5987218e-05
1.1576355e-16
1.5987218e-05
5.1932679e-16
1.5987218e-05
7.5303895e-16
1.5987218e-05
9.0528491e-16
1.5987218e-05
9.2440822e-16
1.5987218e-05
9.1420012e-16
1.5987218e-05
8.5376514e-16
1.5987218e-05
8.3707979e-16
1.5987218e-05
7.9691113e-16
1.5987218e-05
8.0076004e-16
1.5987218e-05
7.6243102e-16
1.5987218e-05
7.8718908e-16
1.5987218e-05
7.711401e-16
1.5987218e-05
7.9895808e-16
1.5987218e-05
7.6016711e-16
1.5987218e-05
8.0084249e-16
1.5987218e-05
8.6727373e-16
1.5987218e-05
1.0420377e-15
1.5987218e-05
1.0564515e-15
1.5987218e-05
1.0238066e-15
1.5987218e-05
7.3451644e-16
1.5987218e-05
4.0836378e-16
1.5987218e-05
-5.1056046e-17
1.5987218e-05
-4.5722113e-16
1.5987218e-05
-8.1056686e-16
1.5987218e-05
-9.6717292e-16
1.5987218e-05
-8.7965612e-16
1.5987218e-05
-6.1485398e-16
1.5987218e-05
-2.2588424e-16
1.5987218e-05
2.5865496e-16
1.5987218e-05
6.719338e-16
1.5987218e-05
1.0053593e-15
1.5987218e-05
1.0164358e-15
1.5987218e-05
8.4050972e-16
1.5987218e-05
3.949815e-16
1.5987218e-05
-6.1249226e-17
1.5987218e-05
-4.2572528e-16
1.5987218e-05
-6.6715234e-16
1.5987218e-05
-8.2728434e-16
1.5987218e-05
-9.3833148e-16
1.5987218e-05
-1.012111e-15
1.5987218e-05
-9.6637147e-16
1.5987218e-05
-7.6127985e-16
1.5987218e-05
-3.8726217e-16
1.5987218e-05
4.717145e-17
1.5987218e-05
4.5188047e-16
1.5987218e-05
7.2256988e-16
1.5987218e-05
8.9448323e-16
1.5987218e-05
9.5169743e-16
1.5987218e-05
9.5442428e-16
1.5987218e-05
9.3670671e-16
1.5987218e-05
9.2458402e-16
1.5987218e-05
9.2996208e-16
1.5987218e-05
9.4882082e-16
1.5987218e-05
9.5544441e-16
1.5987218e-05
9.2100339e-16
1.5987218e-05
8.9624376e-16
1.5987218e-05
9.1403471e-16
1.5987218e-05
1.0074564e-15
1.5987218e-05
1.0593905e-15
1.5987218e-05
1.0132739e-15
1.5987218e-05
7.7509274e-16
1.5987218e-05
3.9266801e-16
1.5987218e-05
-4.3646729e-17
1.5987218e-05
-4.245018e-16
1.5987218e-05
-6.9628925e-16
1.5987218e-05
-8.4205688e-16
1.5987218e-05
-8.8636306e-16
1.5987218e-05
-8.1798646e-16
1.5987218e-05
-7.9312326e-16
1.5987218e-05
-8.2303091e-16
1.5987218e-05
-9.4771639e-16
1.5987218e-05
-1.0003845e-15
1.5987218e-05
-9.7145844e-16
1.5987218e-05
-6.97097e-16
1.5987218e-05
-3.2837148e-16
1.5987218e-05
1.513148e-16
1.5987218e-05
5.0900887e-16
1.5987218e-05
7.8784928e-16
1.5987218e-05
8.9638935e-16
1.5987218e-05
9.633452e-16
1.5987218e-05
9.1946662e-16
1.5987218e-05
9.2077753e-16
1.5987218e-05
8.7178223e-16
1.5987218e-05
9.3811043e-16
1.5987218e-05
9.319844e-16
1.5987218e-05
8.9599585e-16
1.5987218e-05
7.662294e-16
1.5987218e-05
9.3977238e-16
1.5987218e-05
1.1842325e-15
1.5987218e-05
1.0402169e-15
3.5989369e-16
0.00014027132
0.00033219463
9.2549244e-05
7.5871537e-05
7.0338073e-05
3.0330296e-05
5.9620315e-05
1.4898908e-05
5.4019643e-05
7.4663205e-06
5.0795344e-05
4.4027559e-06
4.901105e-05
2.3763145e-06
4.7964745e-05
1.4156386e-06
4.7384384e-05
7.7184948e-07
4.7052233e-05
4.4628627e-07
4.6872682e-05
2.379836e-07
4.677453e-05
1.3094099e-07
4.6724187e-05
6.6280552e-08
4.6698685e-05
3.3670416e-08
4.6686924e-05
1.5249135e-08
4.6681893e-05
6.4811065e-09
4.6680252e-05
1.9904502e-09
4.6680058e-05
1.4558685e-10
4.6680445e-05
-5.983321e-10
4.6680961e-05
-7.369863e-10
4.6681443e-05
-6.7416225e-10
4.6681826e-05
-5.2979677e-10
4.668211e-05
-3.9040514e-10
4.6682309e-05
-2.7187781e-10
4.6682444e-05
-1.834699e-10
4.6682532e-05
-1.1989459e-10
4.6682589e-05
-7.6699129e-11
4.6682624e-05
-4.7949642e-11
4.6682646e-05
-2.9450746e-11
4.6682659e-05
-1.7734652e-11
4.6682667e-05
-1.0498601e-11
4.6682672e-05
-6.0938517e-12
4.6682674e-05
-3.4715728e-12
4.6682676e-05
-1.9317337e-12
4.6682676e-05
-1.0477938e-12
4.6682677e-05
-5.4889802e-13
4.6682677e-05
-2.7592362e-13
4.6682677e-05
-1.2973785e-13
4.6682677e-05
-5.4165746e-14
4.6682677e-05
-1.7479617e-14
4.6682677e-05
-9.9589462e-16
4.6682677e-05
4.5510704e-15
4.6682677e-05
6.1379856e-15
4.6682677e-05
6.0176657e-15
4.6682677e-05
5.5875348e-15
4.6682677e-05
2.7863883e-15
4.6682677e-05
-6.3254155e-17
4.6682677e-05
-1.8599358e-15
4.6682677e-05
-2.9021116e-15
4.6682677e-05
-2.2649323e-15
4.6682677e-05
-3.1741471e-15
4.6682677e-05
-2.1101283e-15
4.6682677e-05
-2.6693884e-15
4.6682677e-05
-2.1894157e-15
4.6682677e-05
-2.8411085e-15
4.6682677e-05
-3.2796817e-15
4.6682677e-05
-3.6269307e-15
4.6682677e-05
-2.7665962e-15
4.6682677e-05
-4.8520009e-15
4.6682677e-05
-2.6731837e-15
4.6682677e-05
-4.0388904e-15
4.6682677e-05
-2.4608425e-15
4.6682677e-05
-3.5956101e-15
4.6682677e-05
-2.5181652e-15
4.6682677e-05
-3.4602963e-15
4.6682677e-05
-2.925646e-15
4.6682677e-05
-3.4239591e-15
4.6682677e-05
-2.4078319e-15
4.6682677e-05
-1.4883737e-15
4.6682677e-05
4.7045413e-16
4.6682677e-05
6.0772189e-16
4.6682677e-05
2.1375706e-15
4.6682677e-05
2.0976418e-15
4.6682677e-05
2.8604277e-15
4.6682677e-05
2.6725408e-15
4.6682677e-05
2.8738469e-15
4.6682677e-05
2.7120796e-15
4.6682677e-05
2.6808689e-15
4.6682677e-05
2.6796612e-15
4.6682677e-05
2.5824136e-15
4.6682677e-05
2.7547224e-15
4.6682677e-05
2.6208466e-15
4.6682677e-05
2.8849465e-15
4.6682677e-05
2.6836211e-15
4.6682677e-05
2.9954953e-15
4.6682677e-05
2.756932e-15
4.6682677e-05
3.1146576e-15
4.6682677e-05
2.8408895e-15
4.6682677e-05
3.1962306e-15
4.6682677e-05
2.8771369e-15
4.6682677e-05
3.2421854e-15
4.6682677e-05
2.9072033e-15
4.6682677e-05
3.2593567e-15
4.6682677e-05
2.8435529e-15
4.6682677e-05
3.1961458e-15
4.6682677e-05
2.8110965e-15
4.6682677e-05
3.2619071e-15
4.6682677e-05
2.7970918e-15
4.6682677e-05
3.1428706e-15
4.6682677e-05
2.7266247e-15
4.6682677e-05
3.3123162e-15
4.6682677e-05
3.0944315e-15
4.6682677e-05
3.4901419e-15
4.6682677e-05
2.7441722e-15
4.6682677e-05
2.3434062e-15
4.6682677e-05
7.9888487e-16
4.6682677e-05
6.3022541e-17
4.6682677e-05
-1.3707096e-15
4.6682677e-05
-1.5159465e-15
4.6682677e-05
-2.1630591e-15
4.6682677e-05
-2.0267879e-15
4.6682677e-05
-2.4135496e-15
4.6682677e-05
-2.4562067e-15
4.6682677e-05
-2.8067753e-15
4.6682677e-05
-2.3810656e-15
4.6682677e-05
-2.6966468e-15
4.6682677e-05
-2.2952208e-15
4.6682677e-05
-2.5103988e-15
4.6682677e-05
-2.1676742e-15
4.6682677e-05
-2.2894999e-15
4.6682677e-05
-2.0275219e-15
4.6682677e-05
-2.1883645e-15
4.6682677e-05
-2.0351623e-15
4.6682677e-05
-2.2281184e-15
4.6682677e-05
-2.1141784e-15
4.6682677e-05
-2.3017608e-15
4.6682677e-05
-2.2082162e-15
4.6682677e-05
-2.3929768e-15
4.6682677e-05
-2.3282141e-15
4.6682677e-05
-2.4985972e-15
4.6682677e-05
-2.4577408e-15
4.6682677e-05
-2.5946602e-15
4.6682677e-05
-2.5657736e-15
4.6682677e-05
-2.6670686e-15
4.6682677e-05
-2.6519129e-15
4.6682677e-05
-2.7142594e-15
4.6682677e-05
-2.7085979e-15
4.6682677e-05
-2.7327217e-15
4.6682677e-05
-2.7381243e-15
4.6682677e-05
-2.7340142e-15
4.6682677e-05
-2.7443915e-15
4.6682677e-05
-2.7135409e-15
4.6682677e-05
-2.7327763e-15
4.6682677e-05
-2.6694851e-15
4.6682677e-05
-2.6682216e-15
4.6682677e-05
-2.5713829e-15
4.6682677e-05
-2.6096464e-15
4.6682677e-05
-2.5698651e-15
4.6682677e-05
-2.6121977e-15
4.6682677e-05
-2.4886516e-15
4.6682677e-05
-2.4546914e-15
4.6682677e-05
-2.4397995e-15
4.6682677e-05
-2.7383155e-15
4.6682677e-05
-2.8379096e-15
4.6682677e-05
-2.6536048e-15
4.6682677e-05
-1.9536387e-15
4.6682677e-05
-9.0124249e-16
4.6682677e-05
2.597055e-16
4.6682677e-05
1.1460524e-15
4.6682677e-05
1.8948079e-15
4.6682677e-05
2.2752369e-15
4.6682677e-05
2.4519656e-15
4.6682677e-05
2.4647102e-15
4.6682677e-05
2.4236856e-15
4.6682677e-05
2.3625845e-15
4.6682677e-05
2.3781077e-15
4.6682677e-05
2.3360928e-15
4.6682677e-05
2.3501522e-15
4.6682677e-05
2.3353633e-15
4.6682677e-05
2.3413302e-15
4.6682677e-05
2.3304337e-15
4.6682677e-05
2.330026e-15
4.6682677e-05
2.3198068e-15
4.6682677e-05
2.3112481e-15
4.6682677e-05
2.3113744e-15
4.6682677e-05
2.2940557e-15
4.6682677e-05
2.3075734e-15
4.6682677e-05
2.2768086e-15
4.6682677e-05
2.2977285e-15
4.6682677e-05
2.2762374e-15
4.6682677e-05
2.2986651e-15
4.6682677e-05
2.2895704e-15
4.6682677e-05
2.2811764e-15
4.6682677e-05
2.2829282e-15
4.6682677e-05
2.2901366e-15
4.6682677e-05
2.3094528e-15
4.6682677e-05
2.3226855e-15
4.6682677e-05
2.3303902e-15
4.6682677e-05
2.2524935e-15
4.6682677e-05
2.1664424e-15
4.6682677e-05
2.2094945e-15
4.6682677e-05
2.4120125e-15
4.6682677e-05
2.608883e-15
4.6682677e-05
2.5677782e-15
4.6682677e-05
1.9521996e-15
4.6682677e-05
1.0560617e-15
4.6682677e-05
-1.1963543e-16
4.6682677e-05
-1.1107335e-15
4.6682677e-05
-1.9391895e-15
4.6682677e-05
-2.374791e-15
4.6682677e-05
-2.5175602e-15
4.6682677e-05
-2.3893428e-15
4.6682677e-05
-2.4383289e-15
4.6682677e-05
-2.4576075e-15
4.6682677e-05
-2.6199574e-15
4.6682677e-05
-2.2964595e-15
4.6682677e-05
-1.7355559e-15
4.6682677e-05
-6.2316394e-16
4.6682677e-05
4.3458005e-16
4.6682677e-05
1.3826896e-15
4.6682677e-05
2.059886e-15
4.6682677e-05
2.4303427e-15
4.6682677e-05
2.5565139e-15
4.6682677e-05
2.5097129e-15
4.6682677e-05
2.4008706e-15
4.6682677e-05
2.3174508e-15
4.6682677e-05
2.2504388e-15
4.6682677e-05
2.2246681e-15
4.6682677e-05
2.1720549e-15
4.6682677e-05
2.2007339e-15
4.6682677e-05
2.2007098e-15
4.6682677e-05
2.2169939e-15
4.6682677e-05
2.1447967e-15
4.6682677e-05
2.1913646e-15
4.6682677e-05
2.3708873e-15
4.6682677e-05
2.7233045e-15
4.6682677e-05
2.7320531e-15
4.6682677e-05
2.5060877e-15
4.6682677e-05
1.6953039e-15
4.6682677e-05
8.3309727e-16
4.6682677e-05
-3.2343244e-16
4.6682677e-05
-1.3626882e-15
4.6682677e-05
-2.2332097e-15
4.6682677e-05
-2.6376617e-15
4.6682677e-05
-2.2903626e-15
4.6682677e-05
-1.6039508e-15
4.6682677e-05
-4.9038929e-16
4.6682677e-05
6.7357596e-16
4.6682677e-05
1.7712836e-15
4.6682677e-05
2.5710179e-15
4.6682677e-05
2.5676317e-15
4.6682677e-05
2.0627975e-15
4.6682677e-05
8.7645072e-16
4.6682677e-05
-2.4125955e-16
4.6682677e-05
-1.167671e-15
4.6682677e-05
-1.8167402e-15
4.6682677e-05
-2.2783657e-15
4.6682677e-05
-2.6136783e-15
4.6682677e-05
-2.7548029e-15
4.6682677e-05
-2.5730608e-15
4.6682677e-05
-1.9236287e-15
4.6682677e-05
-9.3869923e-16
4.6682677e-05
1.8541067e-16
4.6682677e-05
1.1475759e-15
4.6682677e-05
1.8785827e-15
4.6682677e-05
2.3009971e-15
4.6682677e-05
2.4991996e-15
4.6682677e-05
2.4858319e-15
4.6682677e-05
2.4550786e-15
4.6682677e-05
2.3926241e-15
4.6682677e-05
2.4232249e-15
4.6682677e-05
2.4502952e-15
4.6682677e-05
2.4769371e-15
4.6682677e-05
2.3795357e-15
4.6682677e-05
2.344753e-15
4.6682677e-05
2.4033637e-15
4.6682677e-05
2.6579768e-15
4.6682677e-05
2.7320091e-15
4.6682677e-05
2.5279186e-15
4.6682677e-05
1.8156633e-15
4.6682677e-05
7.8203259e-16
4.6682677e-05
-2.8220259e-16
4.6682677e-05
-1.2528176e-15
4.6682677e-05
-1.9268456e-15
4.6682677e-05
-2.3421982e-15
4.6682677e-05
-2.4672098e-15
4.6682677e-05
-2.3084303e-15
4.6682677e-05
-2.238418e-15
4.6682677e-05
-2.3261459e-15
4.6682677e-05
-2.5858302e-15
4.6682677e-05
-2.672101e-15
4.6682677e-05
-2.4851324e-15
4.6682677e-05
-1.7022341e-15
4.6682677e-05
-7.2960118e-16
4.6682677e-05
4.4534099e-16
4.6682677e-05
1.3518827e-15
4.6682677e-05
2.0380432e-15
4.6682677e-05
2.4067886e-15
4.6682677e-05
2.5366663e-15
4.6682677e-05
2.497568e-15
4.6682677e-05
2.4171424e-15
4.6682677e-05
2.3544816e-15
4.6682677e-05
2.4496051e-15
4.6682677e-05
2.5017486e-15
4.6682677e-05
2.3278635e-15
4.6682677e-05
2.0919195e-15
4.6682677e-05
2.5189654e-15
4.6682677e-05
3.1852781e-15
4.6682677e-05
2.6263028e-15
8.442089e-16
0.00019469214
0.00040416928
0.00014360962
0.00012695406
0.00011230147
6.163844e-05
9.6619295e-05
3.0581089e-05
8.7762221e-05
1.6323395e-05
8.2755406e-05
9.409572e-06
7.9871702e-05
5.2600202e-06
7.8206034e-05
3.0813069e-06
7.7256668e-05
1.7212149e-06
7.6718195e-05
9.8475956e-07
7.6420462e-05
5.3571535e-07
7.6258218e-05
2.9318498e-07
7.6172993e-05
1.5150548e-07
7.61296e-05
7.7063368e-08
7.6108851e-05
3.5997941e-08
7.6099695e-05
1.5636789e-08
7.6096324e-05
5.3614325e-09
7.6095587e-05
8.8250917e-10
7.6095937e-05
-9.4745557e-10
7.6096611e-05
-1.411521e-09
7.609729e-05
-1.3534528e-09
7.6097854e-05
-1.0932549e-09
7.609828e-05
-8.1655018e-10
7.6098584e-05
-5.7539586e-10
7.6098791e-05
-3.911264e-10
7.6098929e-05
-2.5745636e-10
7.6099018e-05
-1.655499e-10
7.6099074e-05
-1.0405382e-10
7.6099108e-05
-6.4184107e-11
7.609913e-05
-3.8831411e-11
7.6099142e-05
-2.3082199e-11
7.609915e-05
-1.3459755e-11
7.6099154e-05
-7.7007438e-12
7.6099156e-05
-4.3078306e-12
7.6099157e-05
-2.3509087e-12
7.6099158e-05
-1.2424607e-12
7.6099158e-05
-6.3171686e-13
7.6099159e-05
-3.0285674e-13
7.6099159e-05
-1.3186594e-13
7.6099159e-05
-4.7617344e-14
7.6099159e-05
-8.664495e-15
7.6099159e-05
6.2643504e-15
7.6099159e-05
1.1459361e-14
7.6099159e-05
1.1574361e-14
7.6099159e-05
1.0489195e-14
7.6099159e-05
6.229361e-15
7.6099159e-05
2.481728e-15
7.6099159e-05
-1.8401463e-16
7.6099159e-05
-1.5233583e-15
7.6099159e-05
-1.0921107e-15
7.6099159e-05
-2.0630023e-15
7.6099159e-05
-9.3506714e-16
7.6099159e-05
-1.5657809e-15
7.6099159e-05
-1.2511698e-15
7.6099159e-05
-2.1319382e-15
7.6099159e-05
-2.9054091e-15
7.6099159e-05
-3.5471026e-15
7.6099159e-05
-2.7730805e-15
7.6099159e-05
-5.1170202e-15
7.6099159e-05
-2.7016267e-15
7.6099159e-05
-4.3829e-15
7.6099159e-05
-2.4055797e-15
7.6099159e-05
-3.8146743e-15
7.6099159e-05
-2.4730851e-15
7.6099159e-05
-3.7241964e-15
7.6099159e-05
-3.0217499e-15
7.6099159e-05
-3.6755948e-15
7.6099159e-05
-2.376492e-15
7.6099159e-05
-1.5017725e-15
7.6099159e-05
7.1185941e-16
7.6099159e-05
5.299158e-16
7.6099159e-05
2.2401806e-15
7.6099159e-05
1.8815004e-15
7.6099159e-05
2.8513681e-15
7.6099159e-05
2.4440506e-15
7.6099159e-05
2.8257832e-15
7.6099159e-05
2.5038775e-15
7.6099159e-05
2.6236453e-15
7.6099159e-05
2.4996203e-15
7.6099159e-05
2.5324113e-15
7.6099159e-05
2.6046121e-15
7.6099159e-05
2.5849896e-15
7.6099159e-05
2.7683456e-15
7.6099159e-05
2.67113e-15
7.6099159e-05
2.9230452e-15
7.6099159e-05
2.7792164e-15
7.6099159e-05
3.0947249e-15
7.6099159e-05
2.9029092e-15
7.6099159e-05
3.2299516e-15
7.6099159e-05
2.9741436e-15
7.6099159e-05
3.3207184e-15
7.6099159e-05
3.0180686e-15
7.6099159e-05
3.3614292e-15
7.6099159e-05
2.9467037e-15
7.6099159e-05
3.3129141e-15
7.6099159e-05
2.900892e-15
7.6099159e-05
3.377943e-15
7.6099159e-05
2.8674561e-15
7.6099159e-05
3.2757817e-15
7.6099159e-05
2.8116616e-15
7.6099159e-05
3.4634404e-15
7.6099159e-05
3.1399712e-15
7.6099159e-05
3.5933288e-15
7.6099159e-05
2.6914762e-15
7.6099159e-05
2.4035576e-15
7.6099159e-05
7.3338161e-16
7.6099159e-05
1.8990054e-16
7.6099159e-05
-1.3315983e-15
7.6099159e-05
-1.2942422e-15
7.6099159e-05
-2.0364735e-15
7.6099159e-05
-1.8152804e-15
7.6099159e-05
-2.3179564e-15
7.6099159e-05
-2.3349784e-15
7.6099159e-05
-2.8059919e-15
7.6099159e-05
-2.2550564e-15
7.6099159e-05
-2.660173e-15
7.6099159e-05
-2.1213106e-15
7.6099159e-05
-2.4215567e-15
7.6099159e-05
-1.9635166e-15
7.6099159e-05
-2.1680221e-15
7.6099159e-05
-1.8139824e-15
7.6099159e-05
-2.0551587e-15
7.6099159e-05
-1.8234259e-15
7.6099159e-05
-2.0994136e-15
7.6099159e-05
-1.9189175e-15
7.6099159e-05
-2.1933465e-15
7.6099159e-05
-2.0403559e-15
7.6099159e-05
-2.312442e-15
7.6099159e-05
-2.1930391e-15
7.6099159e-05
-2.4462984e-15
7.6099159e-05
-2.3544331e-15
7.6099159e-05
-2.5661893e-15
7.6099159e-05
-2.4932478e-15
7.6099159e-05
-2.6580834e-15
7.6099159e-05
-2.6063341e-15
7.6099159e-05
-2.7206437e-15
7.6099159e-05
-2.6859515e-15
7.6099159e-05
-2.7494127e-15
7.6099159e-05
-2.7331682e-15
7.6099159e-05
-2.7530333e-15
7.6099159e-05
-2.7491905e-15
7.6099159e-05
-2.7278394e-15
7.6099159e-05
-2.7371884e-15
7.6099159e-05
-2.6677225e-15
7.6099159e-05
-2.6645273e-15
7.6099159e-05
-2.5545637e-15
7.6099159e-05
-2.5984344e-15
7.6099159e-05
-2.5341781e-15
7.6099159e-05
-2.5849604e-15
7.6099159e-05
-2.4322743e-15
7.6099159e-05
-2.425743e-15
7.6099159e-05
-2.3874299e-15
7.6099159e-05
-2.6818592e-15
7.6099159e-05
-2.7119693e-15
7.6099159e-05
-2.5111159e-15
7.6099159e-05
-1.7625605e-15
7.6099159e-05
-7.893801e-16
7.6099159e-05
3.3320967e-16
7.6099159e-05
1.1101616e-15
7.6099159e-05
1.8286574e-15
7.6099159e-05
2.1630584e-15
7.6099159e-05
2.3480132e-15
7.6099159e-05
2.3613803e-15
7.6099159e-05
2.3449685e-15
7.6099159e-05
2.2706264e-15
7.6099159e-05
2.2966667e-15
7.6099159e-05
2.241921e-15
7.6099159e-05
2.2615154e-15
7.6099159e-05
2.2364071e-15
7.6099159e-05
2.2484288e-15
7.6099159e-05
2.2295836e-15
7.6099159e-05
2.2339378e-15
7.6099159e-05
2.21752e-15
7.6099159e-05
2.2129751e-15
7.6099159e-05
2.2074536e-15
7.6099159e-05
2.1935826e-15
7.6099159e-05
2.2013105e-15
7.6099159e-05
2.1749957e-15
7.6099159e-05
2.1923223e-15
7.6099159e-05
2.1724407e-15
7.6099159e-05
2.1945932e-15
7.6099159e-05
2.1819485e-15
7.6099159e-05
2.1774149e-15
7.6099159e-05
2.1768939e-15
7.6099159e-05
2.1861295e-15
7.6099159e-05
2.2041815e-15
7.6099159e-05
2.2171861e-15
7.6099159e-05
2.2225212e-15
7.6099159e-05
2.1472635e-15
7.6099159e-05
2.0738957e-15
7.6099159e-05
2.1186492e-15
7.6099159e-05
2.3184494e-15
7.6099159e-05
2.4699993e-15
7.6099159e-05
2.3949011e-15
7.6099159e-05
1.7583887e-15
7.6099159e-05
8.8631055e-16
7.6099159e-05
-2.3223543e-16
7.6099159e-05
-1.1484805e-15
7.6099159e-05
-1.9215731e-15
7.6099159e-05
-2.2975075e-15
7.6099159e-05
-2.418895e-15
7.6099159e-05
-2.2628947e-15
7.6099159e-05
-2.3188791e-15
7.6099159e-05
-2.292949e-15
7.6099159e-05
-2.4425784e-15
7.6099159e-05
-2.0580236e-15
7.6099159e-05
-1.5221776e-15
7.6099159e-05
-4.2512673e-16
7.6099159e-05
5.2552659e-16
7.6099159e-05
1.4223405e-15
7.6099159e-05
2.013839e-15
7.6099159e-05
2.3690464e-15
7.6099159e-05
2.454805e-15
7.6099159e-05
2.4184587e-15
7.6099159e-05
2.2902666e-15
7.6099159e-05
2.2146297e-15
7.6099159e-05
2.1258959e-15
7.6099159e-05
2.1061532e-15
7.6099159e-05
2.0316436e-15
7.6099159e-05
2.0707176e-15
7.6099159e-05
2.0390045e-15
7.6099159e-05
2.0679213e-15
7.6099159e-05
1.9759849e-15
7.6099159e-05
2.0617191e-15
7.6099159e-05
2.2313743e-15
7.6099159e-05
2.5856927e-15
7.6099159e-05
2.5378845e-15
7.6099159e-05
2.2987169e-15
7.6099159e-05
1.481143e-15
7.6099159e-05
6.6785503e-16
7.6099159e-05
-4.3052152e-16
7.6099159e-05
-1.3808153e-15
7.6099159e-05
-2.1743031e-15
7.6099159e-05
-2.4909086e-15
7.6099159e-05
-2.1177734e-15
7.6099159e-05
-1.4065711e-15
7.6099159e-05
-3.5451632e-16
7.6099159e-05
7.681199e-16
7.6099159e-05
1.7609107e-15
7.6099159e-05
2.4907259e-15
7.6099159e-05
2.4120571e-15
7.6099159e-05
1.8840731e-15
7.6099159e-05
7.3744239e-16
7.6099159e-05
-3.1184706e-16
7.6099159e-05
-1.1728436e-15
7.6099159e-05
-1.784431e-15
7.6099159e-05
-2.2271555e-15
7.6099159e-05
-2.5336187e-15
7.6099159e-05
-2.6427425e-15
7.6099159e-05
-2.4140614e-15
7.6099159e-05
-1.7549029e-15
7.6099159e-05
-7.8700347e-16
7.6099159e-05
2.6069397e-16
7.6099159e-05
1.1637747e-15
7.6099159e-05
1.8258591e-15
7.6099159e-05
2.2249449e-15
7.6099159e-05
2.3983141e-15
7.6099159e-05
2.3889101e-15
7.6099159e-05
2.3583279e-15
7.6099159e-05
2.3030588e-15
7.6099159e-05
2.3344443e-15
7.6099159e-05
2.3619484e-15
7.6099159e-05
2.385108e-15
7.6099159e-05
2.2915991e-15
7.6099159e-05
2.2658726e-15
7.6099159e-05
2.321059e-15
7.6099159e-05
2.546245e-15
7.6099159e-05
2.5707037e-15
7.6099159e-05
2.3242811e-15
7.6099159e-05
1.5949352e-15
7.6099159e-05
6.0384669e-16
7.6099159e-05
-4.0025325e-16
7.6099159e-05
-1.2909236e-15
7.6099159e-05
-1.9239477e-15
7.6099159e-05
-2.298941e-15
7.6099159e-05
-2.4096363e-15
7.6099159e-05
-2.2508925e-15
7.6099159e-05
-2.1931038e-15
7.6099159e-05
-2.2626372e-15
7.6099159e-05
-2.5006133e-15
7.6099159e-05
-2.5217553e-15
7.6099159e-05
-2.3012108e-15
7.6099159e-05
-1.500898e-15
7.6099159e-05
-5.7247695e-16
7.6099159e-05
5.4605105e-16
7.6099159e-05
1.3757842e-15
7.6099159e-05
2.0328877e-15
7.6099159e-05
2.3513976e-15
7.6099159e-05
2.4938327e-15
7.6099159e-05
2.4285994e-15
7.6099159e-05
2.3813228e-15
7.6099159e-05
2.2986356e-15
7.6099159e-05
2.4171069e-15
7.6099159e-05
2.4271038e-15
7.6099159e-05
2.2847162e-15
7.6099159e-05
2.0532661e-15
7.6099159e-05
2.4971238e-15
7.6099159e-05
3.0379048e-15
7.6099159e-05
2.4157496e-15
6.7847503e-16
0.00023312986
0.00043770622
0.00018548526
0.00017459866
0.00015018421
9.6939502e-05
0.0001310242
4.974111e-05
0.00011965162
2.7695984e-05
0.0001131446
1.5916601e-05
0.00010931814
9.0864854e-06
0.00010710183
5.2976185e-06
0.0001058215
3.0015509e-06
0.00010509347
1.7127855e-06
0.00010468612
9.4305849e-07
0.00010446306
5.1624132e-07
0.00010434425
2.7031847e-07
0.00010428311
1.3819818e-07
0.00010425319
6.5917264e-08
0.00010423959
2.9236267e-08
0.0001042342
1.0753179e-08
0.00010423268
2.4046357e-09
0.00010423281
-1.0814547e-09
0.00010423352
-2.1172509e-09
0.00010423431
-2.1451618e-09
0.000104235
-1.7802135e-09
0.00010423553
-1.3485803e-09
0.00010423592
-9.6061994e-10
0.00010423618
-6.5769367e-10
0.00010423636
-4.3571055e-10
0.00010423648
-2.815445e-10
0.00010423655
-1.7779655e-10
0.0001042366
-1.1011124e-10
0.00010423662
-6.6890526e-11
0.00010423664
-3.9911637e-11
0.00010423665
-2.336786e-11
0.00010423666
-1.3423446e-11
0.00010423666
-7.5454127e-12
0.00010423666
-4.1404441e-12
0.00010423666
-2.204544e-12
0.00010423666
-1.1311559e-12
0.00010423666
-5.5036299e-13
0.00010423666
-2.4649277e-13
0.00010423666
-9.5027382e-14
0.00010423666
-2.3651878e-14
0.00010423666
6.0363019e-15
0.00010423666
1.6960505e-14
0.00010423666
1.8451152e-14
0.00010423666
1.6327652e-14
0.00010423666
1.0571865e-14
0.00010423666
5.6064255e-15
0.00010423666
2.7740183e-15
0.00010423666
1.0566636e-15
0.00010423666
1.8773273e-15
0.00010423666
6.1086044e-16
0.00010423666
2.0627784e-15
0.00010423666
9.0095027e-16
0.00010423666
1.1662186e-15
0.00010423666
-3.3242435e-16
0.00010423666
-1.3808453e-15
0.00010423666
-2.574961e-15
0.00010423666
-1.7307161e-15
0.00010423666
-4.9557812e-15
0.00010423666
-2.1504964e-15
0.00010423666
-4.3318969e-15
0.00010423666
-1.9987845e-15
0.00010423666
-3.6734909e-15
0.00010423666
-2.1883676e-15
0.00010423666
-3.673648e-15
0.00010423666
-2.6788537e-15
0.00010423666
-3.1193659e-15
0.00010423666
-1.4875834e-15
0.00010423666
-6.5944231e-16
0.00010423666
1.3427095e-15
0.00010423666
5.3521104e-16
0.00010423666
1.9301193e-15
0.00010423666
1.2473598e-15
0.00010423666
2.119695e-15
0.00010423666
1.6899971e-15
0.00010423666
2.0138787e-15
0.00010423666
1.7643169e-15
0.00010423666
1.795601e-15
0.00010423666
1.7844671e-15
0.00010423666
1.694581e-15
0.00010423666
1.9176736e-15
0.00010423666
1.7526908e-15
0.00010423666
2.1144634e-15
0.00010423666
1.8610594e-15
0.00010423666
2.3226915e-15
0.00010423666
2.0208195e-15
0.00010423666
2.5632918e-15
0.00010423666
2.2178858e-15
0.00010423666
2.7740736e-15
0.00010423666
2.3637879e-15
0.00010423666
2.9281534e-15
0.00010423666
2.4579175e-15
0.00010423666
2.9785642e-15
0.00010423666
2.3928803e-15
0.00010423666
2.9260594e-15
0.00010423666
2.3392494e-15
0.00010423666
2.9590468e-15
0.00010423666
2.297163e-15
0.00010423666
2.8994851e-15
0.00010423666
2.3458907e-15
0.00010423666
3.1327758e-15
0.00010423666
2.5955448e-15
0.00010423666
2.9938252e-15
0.00010423666
1.9388034e-15
0.00010423666
1.827235e-15
0.00010423666
3.8683324e-16
0.00010423666
2.9373986e-16
0.00010423666
-1.0829861e-15
0.00010423666
-8.9086545e-16
0.00010423666
-1.6879109e-15
0.00010423666
-1.3837005e-15
0.00010423666
-1.8537184e-15
0.00010423666
-1.7910831e-15
0.00010423666
-2.2443462e-15
0.00010423666
-1.602289e-15
0.00010423666
-2.0571125e-15
0.00010423666
-1.458502e-15
0.00010423666
-1.7708349e-15
0.00010423666
-1.2753462e-15
0.00010423666
-1.4701083e-15
0.00010423666
-1.0912827e-15
0.00010423666
-1.3175066e-15
0.00010423666
-1.0836441e-15
0.00010423666
-1.3601423e-15
0.00010423666
-1.2004557e-15
0.00010423666
-1.4795287e-15
0.00010423666
-1.3553812e-15