/*--------------------------------*- C++ -*----------------------------------*\
| =========                 |                                                 |
| \\      /  F ield         | OpenFOAM: The Open Source CFD Toolbox           |
|  \\    /   O peration     | Version:  2206                                  |
|   \\  /    A nd           | Website:  www.openfoam.com                      |
|    \\/     M anipulation  |                                                 |
\*---------------------------------------------------------------------------*/
FoamFile
{
    version     2.0;
    format      ascii;
    arch        "LSB;label=32;scalar=64";
    class       volVectorField;
    location    "30";
    object      U;
}
// * * * * * * * * * * * * * * * * * * * * * * * * * * * * * * * * * * * * * //

dimensions      [0 1 -1 0 0 0 0];

internalField   nonuniform List<vector> 
15000
(
(0.15962853 0.053997677 0)
(0.11557193 0.0064916374 0)
(0.064251361 0.001414415 0)
(0.055918599 0.00074959458 0)
(0.047595818 0.000288263 0)
(0.0447088 0.00019883911 0)
(0.042412496 9.0519945e-05 0)
(0.041406639 6.0128336e-05 0)
(0.040707478 2.8981821e-05 0)
(0.040376991 1.8022971e-05 0)
(0.040167798 8.6651373e-06 0)
(0.040068659 4.9978807e-06 0)
(0.040011053 2.268801e-06 0)
(0.039985308 1.1742954e-06 0)
(0.039971973 4.4674466e-07 0)
(0.039967049 1.7375898e-07 0)
(0.03996518 1.390649e-08 0)
(0.039965127 -3.0381264e-08 0)
(0.039965544 -4.8823823e-08 0)
(0.039966152 -4.3356802e-08 0)
(0.03996668 -3.5817227e-08 0)
(0.039967111 -2.606887e-08 0)
(0.039967422 -1.8537355e-08 0)
(0.039967642 -1.2431413e-08 0)
(0.03996779 -8.2113614e-09 0)
(0.039967887 -5.2359917e-09 0)
(0.039967949 -3.2970166e-09 0)
(0.039967988 -2.0238737e-09 0)
(0.039968012 -1.2265552e-09 0)
(0.039968026 -7.2706789e-10 0)
(0.039968035 -4.2515545e-10 0)
(0.039968039 -2.4314538e-10 0)
(0.039968042 -1.368103e-10 0)
(0.039968044 -7.4662185e-11 0)
(0.039968045 -3.9602645e-11 0)
(0.039968045 -1.9953859e-11 0)
(0.039968045 -9.6051002e-12 0)
(0.039968046 -4.0889671e-12 0)
(0.039968046 -1.2578313e-12 0)
(0.039968046 2.5923509e-14 0)
(0.039968046 5.3448819e-13 0)
(0.039968046 4.7829624e-13 0)
(0.039968046 4.1753428e-13 0)
(0.039968046 3.3144932e-13 0)
(0.039968046 4.1009518e-13 0)
(0.039968046 1.264198e-13 0)
(0.039968046 -1.426699e-13 0)
(0.039968046 -4.2434432e-13 0)
(0.039968046 -5.7758433e-13 0)
(0.039968046 -5.4491302e-13 0)
(0.039968046 -6.62191e-13 0)
(0.039968046 -5.1472832e-13 0)
(0.039968046 -5.4698163e-13 0)
(0.039968046 -4.7955476e-13 0)
(0.039968046 -5.3106677e-13 0)
(0.039968046 -6.0798666e-13 0)
(0.039968046 -6.1569132e-13 0)
(0.039968046 -4.7617896e-13 0)
(0.039968046 -7.3404909e-13 0)
(0.039968046 -4.0604502e-13 0)
(0.039968046 -5.9878394e-13 0)
(0.039968046 -3.585198e-13 0)
(0.039968046 -5.1862453e-13 0)
(0.039968046 -3.3356034e-13 0)
(0.039968046 -4.615274e-13 0)
(0.039968046 -3.8650668e-13 0)
(0.039968046 -5.1180749e-13 0)
(0.039968046 -4.0416898e-13 0)
(0.039968046 -3.0788303e-13 0)
(0.039968046 4.1129053e-15 0)
(0.039968046 2.6114762e-14 0)
(0.039968046 3.0582377e-13 0)
(0.039968046 2.9930953e-13 0)
(0.039968046 4.4274953e-13 0)
(0.039968046 3.9490972e-13 0)
(0.039968046 4.5074131e-13 0)
(0.039968046 4.062953e-13 0)
(0.039968046 4.3011824e-13 0)
(0.039968046 4.0905764e-13 0)
(0.039968046 4.2245106e-13 0)
(0.039968046 4.2250914e-13 0)
(0.039968046 4.2820418e-13 0)
(0.039968046 4.4058722e-13 0)
(0.039968046 4.3665516e-13 0)
(0.039968046 4.5513567e-13 0)
(0.039968046 4.4469373e-13 0)
(0.039968046 4.7088074e-13 0)
(0.039968046 4.5372834e-13 0)
(0.039968046 4.8078375e-13 0)
(0.039968046 4.5494999e-13 0)
(0.039968046 4.863207e-13 0)
(0.039968046 4.5639964e-13 0)
(0.039968046 4.9114312e-13 0)
(0.039968046 4.4671744e-13 0)
(0.039968046 4.8311058e-13 0)
(0.039968046 4.3878602e-13 0)
(0.039968046 4.9499942e-13 0)
(0.039968046 4.3812944e-13 0)
(0.039968046 4.7659447e-13 0)
(0.039968046 4.1277363e-13 0)
(0.039968046 4.8657512e-13 0)
(0.039968046 4.6560205e-13 0)
(0.039968046 5.5050193e-13 0)
(0.039968046 4.6330115e-13 0)
(0.039968046 4.1791351e-13 0)
(0.039968046 1.6768124e-13 0)
(0.039968046 4.5229618e-14 0)
(0.039968046 -1.7444381e-13 0)
(0.039968046 -1.7893376e-13 0)
(0.039968046 -2.7485889e-13 0)
(0.039968046 -2.5646528e-13 0)
(0.039968046 -3.3623061e-13 0)
(0.039968046 -3.5618133e-13 0)
(0.039968046 -4.2502692e-13 0)
(0.039968046 -3.5745538e-13 0)
(0.039968046 -4.0787541e-13 0)
(0.039968046 -3.4128903e-13 0)
(0.039968046 -3.8126191e-13 0)
(0.039968046 -3.2600638e-13 0)
(0.039968046 -3.5589159e-13 0)
(0.039968046 -3.1322319e-13 0)
(0.039968046 -3.4718695e-13 0)
(0.039968046 -3.1695694e-13 0)
(0.039968046 -3.5247841e-13 0)
(0.039968046 -3.2647946e-13 0)
(0.039968046 -3.6171359e-13 0)
(0.039968046 -3.3967134e-13 0)
(0.039968046 -3.7552282e-13 0)
(0.039968046 -3.5717775e-13 0)
(0.039968046 -3.8992248e-13 0)
(0.039968046 -3.7440583e-13 0)
(0.039968046 -4.0172811e-13 0)
(0.039968046 -3.882642e-13 0)
(0.039968046 -4.0954158e-13 0)
(0.039968046 -3.9935554e-13 0)
(0.039968046 -4.13962e-13 0)
(0.039968046 -4.0620817e-13 0)
(0.039968046 -4.1462972e-13 0)
(0.039968046 -4.1002013e-13 0)
(0.039968046 -4.1365858e-13 0)
(0.039968046 -4.1161965e-13 0)
(0.039968046 -4.1024143e-13 0)
(0.039968046 -4.1131405e-13 0)
(0.039968046 -4.049763e-13 0)
(0.039968046 -4.0468475e-13 0)
(0.039968046 -3.9130077e-13 0)
(0.039968046 -3.9665122e-13 0)
(0.039968046 -3.9067492e-13 0)
(0.039968046 -4.0035553e-13 0)
(0.039968046 -3.7966674e-13 0)
(0.039968046 -3.7196604e-13 0)
(0.039968046 -3.6007469e-13 0)
(0.039968046 -4.0812425e-13 0)
(0.039968046 -4.3859443e-13 0)
(0.039968046 -4.502564e-13 0)
(0.039968046 -3.691873e-13 0)
(0.039968046 -2.2073154e-13 0)
(0.039968046 -1.4534498e-14 0)
(0.039968046 1.4432476e-13 0)
(0.039968046 2.7442029e-13 0)
(0.039968046 3.3077976e-13 0)
(0.039968046 3.5724724e-13 0)
(0.039968046 3.5764937e-13 0)
(0.039968046 3.5836492e-13 0)
(0.039968046 3.5117213e-13 0)
(0.039968046 3.5654202e-13 0)
(0.039968046 3.5070682e-13 0)
(0.039968046 3.5390837e-13 0)
(0.039968046 3.5054736e-13 0)
(0.039968046 3.5219124e-13 0)
(0.039968046 3.4956268e-13 0)
(0.039968046 3.5074004e-13 0)
(0.039968046 3.4862262e-13 0)
(0.039968046 3.485856e-13 0)
(0.039968046 3.4714837e-13 0)
(0.039968046 3.459802e-13 0)
(0.039968046 3.4623624e-13 0)
(0.039968046 3.4369216e-13 0)
(0.039968046 3.4547986e-13 0)
(0.039968046 3.434377e-13 0)
(0.039968046 3.4660238e-13 0)
(0.039968046 3.4535766e-13 0)
(0.039968046 3.4404768e-13 0)
(0.039968046 3.4332561e-13 0)
(0.039968046 3.4448513e-13 0)
(0.039968046 3.4728462e-13 0)
(0.039968046 3.5026383e-13 0)
(0.039968046 3.5220344e-13 0)
(0.039968046 3.4146685e-13 0)
(0.039968046 3.240502e-13 0)
(0.039968046 3.2208787e-13 0)
(0.039968046 3.5105193e-13 0)
(0.039968046 3.9452713e-13 0)
(0.039968046 4.1595865e-13 0)
(0.039968046 3.6112053e-13 0)
(0.039968046 2.3558737e-13 0)
(0.039968046 4.2485012e-14 0)
(0.039968046 -1.356803e-13 0)
(0.039968046 -2.8037214e-13 0)
(0.039968046 -3.5291083e-13 0)
(0.039968046 -3.7274018e-13 0)
(0.039968046 -3.4875285e-13 0)
(0.039968046 -3.5190767e-13 0)
(0.039968046 -3.6125059e-13 0)
(0.039968046 -4.0699397e-13 0)
(0.039968046 -3.9053169e-13 0)
(0.039968046 -3.3549299e-13 0)
(0.039968046 -1.7085777e-13 0)
(0.039968046 8.450369e-15 0)
(0.039968046 1.8073246e-13 0)
(0.039968046 2.8955355e-13 0)
(0.039968046 3.5050069e-13 0)
(0.039968046 3.6302356e-13 0)
(0.039968046 3.6011924e-13 0)
(0.039968046 3.4451303e-13 0)
(0.039968046 3.4056046e-13 0)
(0.039968046 3.3252622e-13 0)
(0.039968046 3.3400238e-13 0)
(0.039968046 3.2458389e-13 0)
(0.039968046 3.3153361e-13 0)
(0.039968046 3.3037824e-13 0)
(0.039968046 3.3852799e-13 0)
(0.039968046 3.2453295e-13 0)
(0.039968046 3.2742726e-13 0)
(0.039968046 3.4640759e-13 0)
(0.039968046 4.0712483e-13 0)
(0.039968046 4.3170688e-13 0)
(0.039968046 4.3120267e-13 0)
(0.039968046 3.3693139e-13 0)
(0.039968046 2.0326634e-13 0)
(0.039968046 1.0942147e-14 0)
(0.039968046 -1.651784e-13 0)
(0.039968046 -3.177667e-13 0)
(0.039968046 -3.9775148e-13 0)
(0.039968046 -3.8278746e-13 0)
(0.039968046 -2.9699369e-13 0)
(0.039968046 -1.4110886e-13 0)
(0.039968046 5.5149399e-14 0)
(0.039968046 2.3962633e-13 0)
(0.039968046 3.8531387e-13 0)
(0.039968046 4.1878753e-13 0)
(0.039968046 3.6885345e-13 0)
(0.039968046 2.0133246e-13 0)
(0.039968046 7.4788905e-15 0)
(0.039968046 -1.5681462e-13 0)
(0.039968046 -2.5898346e-13 0)
(0.039968046 -3.2015652e-13 0)
(0.039968046 -3.6508105e-13 0)
(0.039968046 -4.0417454e-13 0)
(0.039968046 -4.0868018e-13 0)
(0.039968046 -3.4953368e-13 0)
(0.039968046 -2.107385e-13 0)
(0.039968046 -2.4755685e-14 0)
(0.039968046 1.5034109e-13 0)
(0.039968046 2.7358356e-13 0)
(0.039968046 3.4283628e-13 0)
(0.039968046 3.6724148e-13 0)
(0.039968046 3.6779529e-13 0)
(0.039968046 3.633424e-13 0)
(0.039968046 3.5982584e-13 0)
(0.039968046 3.6391666e-13 0)
(0.039968046 3.7206392e-13 0)
(0.039968046 3.7662578e-13 0)
(0.039968046 3.6418882e-13 0)
(0.039968046 3.516263e-13 0)
(0.039968046 3.5602792e-13 0)
(0.039968046 3.9448338e-13 0)
(0.039968046 4.2802362e-13 0)
(0.039968046 4.2809298e-13 0)
(0.039968046 3.5174756e-13 0)
(0.039968046 1.9820381e-13 0)
(0.039968046 1.0070118e-14 0)
(0.039968046 -1.5907765e-13 0)
(0.039968046 -2.7449393e-13 0)
(0.039968046 -3.3732324e-13 0)
(0.039968046 -3.5649165e-13 0)
(0.039968046 -3.3407564e-13 0)
(0.039968046 -3.2038109e-13 0)
(0.039968046 -3.3002933e-13 0)
(0.039968046 -3.7783337e-13 0)
(0.039968046 -4.1415985e-13 0)
(0.039968046 -4.1770765e-13 0)
(0.039968046 -3.3056645e-13 0)
(0.039968046 -1.823116e-13 0)
(0.039968046 2.062e-14 0)
(0.039968046 1.8178717e-13 0)
(0.039968046 2.9946157e-13 0)
(0.039968046 3.49555e-13 0)
(0.039968046 3.7190351e-13 0)
(0.039968046 3.6155908e-13 0)
(0.039968046 3.5863009e-13 0)
(0.039968046 3.4577893e-13 0)
(0.039968046 3.6586748e-13 0)
(0.039968046 3.7327388e-13 0)
(0.039968046 3.5884286e-13 0)
(0.039968046 3.0782649e-13 0)
(0.039968046 3.531707e-13 0)
(0.039968046 4.6356605e-13 0)
(0.039968046 4.5453045e-13 0)
(0.039968046 1.9496503e-13 0)
(0.36732383 0.14062829 0)
(0.29754389 0.025079374 0)
(0.1860793 0.0083694506 0)
(0.16132807 0.0041218631 0)
(0.13901859 0.001937569 0)
(0.13040448 0.0011770144 0)
(0.12396461 0.00061112256 0)
(0.12095999 0.00037191798 0)
(0.1189454 0.00019726915 0)
(0.11794826 0.00011564694 0)
(0.11733081 6.0266226e-05 0)
(0.11702581 3.3420779e-05 0)
(0.11685065 1.6515121e-05 0)
(0.11676842 8.3945072e-06 0)
(0.1167257 3.6637891e-06 0)
(0.11670834 1.5206263e-06 0)
(0.1167012 3.989298e-07 0)
(0.11669986 -2.8611919e-08 0)
(0.1167004 -1.9946606e-07 0)
(0.11670175 -2.1619517e-07 0)
(0.11670304 -1.9050855e-07 0)
(0.11670415 -1.4610957e-07 0)
(0.11670497 -1.0639403e-07 0)
(0.11670557 -7.3270683e-08 0)
(0.11670597 -4.9115013e-08 0)
(0.11670624 -3.1871794e-08 0)
(0.11670642 -2.0291226e-08 0)
(0.11670653 -1.2619492e-08 0)
(0.11670659 -7.719602e-09 0)
(0.11670664 -4.6275751e-09 0)
(0.11670666 -2.7291209e-09 0)
(0.11670667 -1.5770673e-09 0)
(0.11670668 -8.948178e-10 0)
(0.11670669 -4.9507426e-10 0)
(0.11670669 -2.6680043e-10 0)
(0.11670669 -1.3830771e-10 0)
(0.11670669 -6.8714915e-11 0)
(0.11670669 -3.1535096e-11 0)
(0.11670669 -1.2452472e-11 0)
(0.11670669 -3.3409821e-12 0)
(0.11670669 6.4751314e-13 0)
(0.11670669 1.6875677e-12 0)
(0.11670669 1.9054704e-12 0)
(0.11670669 1.7486046e-12 0)
(0.11670669 1.7097084e-12 0)
(0.11670669 7.5098047e-13 0)
(0.11670669 -1.7601005e-13 0)
(0.11670669 -8.6889606e-13 0)
(0.11670669 -1.2863462e-12 0)
(0.11670669 -1.0740487e-12 0)
(0.11670669 -1.4202302e-12 0)
(0.11670669 -9.9282562e-13 0)
(0.11670669 -1.1805417e-12 0)
(0.11670669 -9.9968811e-13 0)
(0.11670669 -1.2331541e-12 0)
(0.11670669 -1.4213249e-12 0)
(0.11670669 -1.5119134e-12 0)
(0.11670669 -1.1251251e-12 0)
(0.11670669 -1.9489502e-12 0)
(0.11670669 -1.0313974e-12 0)
(0.11670669 -1.6037769e-12 0)
(0.11670669 -9.2495518e-13 0)
(0.11670669 -1.4016804e-12 0)
(0.11670669 -9.1717459e-13 0)
(0.11670669 -1.3222021e-12 0)
(0.11670669 -1.099435e-12 0)
(0.11670669 -1.3658121e-12 0)
(0.11670669 -9.9133234e-13 0)
(0.11670669 -6.8378293e-13 0)
(0.11670669 1.257119e-13 0)
(0.11670669 1.2726683e-13 0)
(0.11670669 8.2670951e-13 0)
(0.11670669 7.5730261e-13 0)
(0.11670669 1.1239321e-12 0)
(0.11670669 9.9407973e-13 0)
(0.11670669 1.1328409e-12 0)
(0.11670669 1.0192984e-12 0)
(0.11670669 1.0671373e-12 0)
(0.11670669 1.0185648e-12 0)
(0.11670669 1.036376e-12 0)
(0.11670669 1.0527503e-12 0)
(0.11670669 1.0515481e-12 0)
(0.11670669 1.1042752e-12 0)
(0.11670669 1.0746978e-12 0)
(0.11670669 1.1484086e-12 0)
(0.11670669 1.1013406e-12 0)
(0.11670669 1.1965244e-12 0)
(0.11670669 1.1319477e-12 0)
(0.11670669 1.2304801e-12 0)
(0.11670669 1.1438642e-12 0)
(0.11670669 1.2505434e-12 0)
(0.11670669 1.1530087e-12 0)
(0.11670669 1.2627485e-12 0)
(0.11670669 1.1279964e-12 0)
(0.11670669 1.2415967e-12 0)
(0.11670669 1.1100227e-12 0)
(0.11670669 1.2688923e-12 0)
(0.11670669 1.104637e-12 0)
(0.11670669 1.2239511e-12 0)
(0.11670669 1.0621118e-12 0)
(0.11670669 1.272531e-12 0)
(0.11670669 1.1993024e-12 0)
(0.11670669 1.3818109e-12 0)
(0.11670669 1.1156005e-12 0)
(0.11670669 9.8447565e-13 0)
(0.11670669 3.6238034e-13 0)
(0.11670669 8.0345536e-14 0)
(0.11670669 -4.8139128e-13 0)
(0.11670669 -5.0591921e-13 0)
(0.11670669 -7.6098164e-13 0)
(0.11670669 -7.064799e-13 0)
(0.11670669 -8.878802e-13 0)
(0.11670669 -9.1992087e-13 0)
(0.11670669 -1.0813451e-12 0)
(0.11670669 -9.0203597e-13 0)
(0.11670669 -1.0331036e-12 0)
(0.11670669 -8.6304661e-13 0)
(0.11670669 -9.6112673e-13 0)
(0.11670669 -8.183611e-13 0)
(0.11670669 -8.8478298e-13 0)
(0.11670669 -7.7446674e-13 0)
(0.11670669 -8.5276015e-13 0)
(0.11670669 -7.8022601e-13 0)
(0.11670669 -8.6735503e-13 0)
(0.11670669 -8.0862103e-13 0)
(0.11670669 -8.947932e-13 0)
(0.11670669 -8.4570408e-13 0)
(0.11670669 -9.3184022e-13 0)
(0.11670669 -8.9359542e-13 0)
(0.11670669 -9.7281462e-13 0)
(0.11670669 -9.4317223e-13 0)
(0.11670669 -1.0085876e-12 0)
(0.11670669 -9.8422035e-13 0)
(0.11670669 -1.0343924e-12 0)
(0.11670669 -1.0170756e-12 0)
(0.11670669 -1.050638e-12 0)
(0.11670669 -1.0387049e-12 0)
(0.11670669 -1.0562327e-12 0)
(0.11670669 -1.0506228e-12 0)
(0.11670669 -1.0558125e-12 0)
(0.11670669 -1.0545384e-12 0)
(0.11670669 -1.0474566e-12 0)
(0.11670669 -1.0518375e-12 0)
(0.11670669 -1.0311838e-12 0)
(0.11670669 -1.0301418e-12 0)
(0.11670669 -9.9349858e-13 0)
(0.11670669 -1.0077789e-12 0)
(0.11670669 -9.9159986e-13 0)
(0.11670669 -1.0112582e-12 0)
(0.11670669 -9.6049373e-13 0)
(0.11670669 -9.4499429e-13 0)
(0.11670669 -9.2676654e-13 0)
(0.11670669 -1.0448598e-12 0)
(0.11670669 -1.0988447e-12 0)
(0.11670669 -1.0716445e-12 0)
(0.11670669 -8.2913348e-13 0)
(0.11670669 -4.4199938e-13 0)
(0.11670669 3.9076229e-14 0)
(0.11670669 3.9975175e-13 0)
(0.11670669 7.0706186e-13 0)
(0.11670669 8.5046965e-13 0)
(0.11670669 9.1979332e-13 0)
(0.11670669 9.2428313e-13 0)
(0.11670669 9.1914654e-13 0)
(0.11670669 8.9559269e-13 0)
(0.11670669 9.0632335e-13 0)
(0.11670669 8.8912566e-13 0)
(0.11670669 8.9638956e-13 0)
(0.11670669 8.8837502e-13 0)
(0.11670669 8.924213e-13 0)
(0.11670669 8.8602395e-13 0)
(0.11670669 8.8797489e-13 0)
(0.11670669 8.8235842e-13 0)
(0.11670669 8.8106303e-13 0)
(0.11670669 8.7871113e-13 0)
(0.11670669 8.7414223e-13 0)
(0.11670669 8.7657325e-13 0)
(0.11670669 8.6751143e-13 0)
(0.11670669 8.7379959e-13 0)
(0.11670669 8.6695778e-13 0)
(0.11670669 8.7567845e-13 0)
(0.11670669 8.7165726e-13 0)
(0.11670669 8.6877157e-13 0)
(0.11670669 8.6803151e-13 0)
(0.11670669 8.704341e-13 0)
(0.11670669 8.7871256e-13 0)
(0.11670669 8.838643e-13 0)
(0.11670669 8.8897695e-13 0)
(0.11670669 8.5933663e-13 0)
(0.11670669 8.2182524e-13 0)
(0.11670669 8.2831039e-13 0)
(0.11670669 9.0481864e-13 0)
(0.11670669 9.9301439e-13 0)
(0.11670669 1.0104739e-12 0)
(0.11670669 8.1511697e-13 0)
(0.11670669 4.8405418e-13 0)
(0.11670669 1.9838664e-14 0)
(0.11670669 -3.9264354e-13 0)
(0.11670669 -7.2778378e-13 0)
(0.11670669 -9.0074518e-13 0)
(0.11670669 -9.5340827e-13 0)
(0.11670669 -8.9715659e-13 0)
(0.11670669 -9.1207704e-13 0)
(0.11670669 -9.2410978e-13 0)
(0.11670669 -1.0110845e-12 0)
(0.11670669 -9.209455e-13 0)
(0.11670669 -7.4276209e-13 0)
(0.11670669 -3.2017588e-13 0)
(0.11670669 1.0196955e-13 0)
(0.11670669 4.9761963e-13 0)
(0.11670669 7.6132278e-13 0)
(0.11670669 9.0818107e-13 0)
(0.11670669 9.4894846e-13 0)
(0.11670669 9.3477271e-13 0)
(0.11670669 8.9342993e-13 0)
(0.11670669 8.7039086e-13 0)
(0.11670669 8.4595699e-13 0)
(0.11670669 8.4219305e-13 0)
(0.11670669 8.1940763e-13 0)
(0.11670669 8.3350627e-13 0)
(0.11670669 8.3200877e-13 0)
(0.11670669 8.4555243e-13 0)
(0.11670669 8.152036e-13 0)
(0.11670669 8.3149384e-13 0)
(0.11670669 8.919424e-13 0)
(0.11670669 1.038039e-12 0)
(0.11670669 1.0638596e-12 0)
(0.11670669 1.0185038e-12 0)
(0.11670669 7.3764955e-13 0)
(0.11670669 4.0612612e-13 0)
(0.11670669 -5.3823406e-14 0)
(0.11670669 -4.7302544e-13 0)
(0.11670669 -8.2518635e-13 0)
(0.11670669 -1.0025568e-12 0)
(0.11670669 -9.1062975e-13 0)
(0.11670669 -6.6807605e-13 0)
(0.11670669 -2.5918478e-13 0)
(0.11670669 2.1189773e-13 0)
(0.11670669 6.452698e-13 0)
(0.11670669 9.8130291e-13 0)
(0.11670669 1.0135636e-12 0)
(0.11670669 8.5111071e-13 0)
(0.11670669 4.1097784e-13 0)
(0.11670669 -4.4278602e-14 0)
(0.11670669 -4.2152777e-13 0)
(0.11670669 -6.7463382e-13 0)
(0.11670669 -8.4065739e-13 0)
(0.11670669 -9.6225487e-13 0)
(0.11670669 -1.03592e-12 0)
(0.11670669 -1.0022617e-12 0)
(0.11670669 -7.9756684e-13 0)
(0.11670669 -4.3193799e-13 0)
(0.11670669 1.2825915e-14 0)
(0.11670669 4.1533969e-13 0)
(0.11670669 7.0552447e-13 0)
(0.11670669 8.7414645e-13 0)
(0.11670669 9.4415092e-13 0)
(0.11670669 9.4210048e-13 0)
(0.11670669 9.3123511e-13 0)
(0.11670669 9.1390438e-13 0)
(0.11670669 9.2568625e-13 0)
(0.11670669 9.3993834e-13 0)
(0.11670669 9.5117353e-13 0)
(0.11670669 9.1555181e-13 0)
(0.11670669 8.9520238e-13 0)
(0.11670669 9.1073015e-13 0)
(0.11670669 1.0088046e-12 0)
(0.11670669 1.0600471e-12 0)
(0.11670669 1.0179835e-12 0)
(0.11670669 7.8015603e-13 0)
(0.11670669 3.8995551e-13 0)
(0.11670669 -4.6828788e-14 0)
(0.11670669 -4.4175217e-13 0)
(0.11670669 -7.1528366e-13 0)
(0.11670669 -8.7345162e-13 0)
(0.11670669 -9.2201057e-13 0)
(0.11670669 -8.6215376e-13 0)
(0.11670669 -8.3329416e-13 0)
(0.11670669 -8.6187101e-13 0)
(0.11670669 -9.7275001e-13 0)
(0.11670669 -1.0285494e-12 0)
(0.11670669 -9.9537472e-13 0)
(0.11670669 -7.2924037e-13 0)
(0.11670669 -3.5632764e-13 0)
(0.11670669 1.1956072e-13 0)
(0.11670669 4.9248118e-13 0)
(0.11670669 7.6860617e-13 0)
(0.11670669 9.0356554e-13 0)
(0.11670669 9.56807e-13 0)
(0.11670669 9.3678857e-13 0)
(0.11670669 9.1748083e-13 0)
(0.11670669 8.8935025e-13 0)
(0.11670669 9.3322591e-13 0)
(0.11670669 9.5124591e-13 0)
(0.11670669 8.9823288e-13 0)
(0.11670669 7.903049e-13 0)
(0.11670669 9.3525045e-13 0)
(0.11670669 1.1989177e-12 0)
(0.11670669 1.0619661e-12 0)
(0.11670669 3.9413125e-13 0)
(0.50390834 0.19019021 0)
(0.4384704 0.050431489 0)
(0.29767008 0.022055296 0)
(0.25944374 0.010780081 0)
(0.22598939 0.0055621234 0)
(0.21213187 0.0032307855 0)
(0.20205719 0.0017732808 0)
(0.19716897 0.0010457348 0)
(0.19394744 0.00057679649 0)
(0.19230772 0.00033133882 0)
(0.19130242 0.00017833518 0)
(0.19079327 9.773175e-05 0)
(0.19050201 4.9926429e-05 0)
(0.1903612 2.5328193e-05 0)
(0.19028762 1.1620274e-05 0)
(0.19025609 4.9682953e-06 0)
(0.1902425 1.5955311e-06 0)
(0.19023894 1.7265755e-07 0)
(0.19023899 -4.004454e-07 0)
(0.19024063 -5.2293799e-07 0)
(0.19024241 -4.8521607e-07 0)
(0.19024402 -3.8496809e-07 0)
(0.19024524 -2.8486801e-07 0)
(0.19024615 -1.9921298e-07 0)
(0.19024677 -1.3474491e-07 0)
(0.19024719 -8.8281966e-08 0)
(0.19024746 -5.6571247e-08 0)
(0.19024763 -3.5434647e-08 0)
(0.19024774 -2.179535e-08 0)
(0.1902478 -1.3146885e-08 0)
(0.19024784 -7.7938182e-09 0)
(0.19024787 -4.5315711e-09 0)
(0.19024788 -2.5854727e-09 0)
(0.19024789 -1.4414702e-09 0)
(0.19024789 -7.835984e-10 0)
(0.19024789 -4.11912e-10 0)
(0.1902479 -2.0800466e-10 0)
(0.1902479 -9.8605022e-11 0)
(0.1902479 -4.189849e-11 0)
(0.1902479 -1.4183734e-11 0)
(0.1902479 -1.5788335e-12 0)
(0.1902479 2.8325383e-12 0)
(0.1902479 4.1949608e-12 0)
(0.1902479 4.1166783e-12 0)
(0.1902479 3.8374639e-12 0)
(0.1902479 2.114658e-12 0)
(0.1902479 4.0273448e-13 0)
(0.1902479 -8.2738811e-13 0)
(0.1902479 -1.5142938e-12 0)
(0.1902479 -1.3177937e-12 0)
(0.1902479 -1.821132e-12 0)
(0.1902479 -1.2652548e-12 0)
(0.1902479 -1.5124089e-12 0)
(0.1902479 -1.2522638e-12 0)
(0.1902479 -1.59238e-12 0)
(0.1902479 -1.8655335e-12 0)
(0.1902479 -2.084665e-12 0)
(0.1902479 -1.6437348e-12 0)
(0.1902479 -2.7329952e-12 0)
(0.1902479 -1.5419295e-12 0)
(0.1902479 -2.307154e-12 0)
(0.1902479 -1.4137987e-12 0)
(0.1902479 -2.0482277e-12 0)
(0.1902479 -1.4137566e-12 0)
(0.1902479 -1.9487865e-12 0)
(0.1902479 -1.6532832e-12 0)
(0.1902479 -1.992235e-12 0)
(0.1902479 -1.4281645e-12 0)
(0.1902479 -9.4216131e-13 0)
(0.1902479 1.9301461e-13 0)
(0.1902479 3.2581054e-13 0)
(0.1902479 1.2469342e-12 0)
(0.1902479 1.2278658e-12 0)
(0.1902479 1.6812722e-12 0)
(0.1902479 1.5606619e-12 0)
(0.1902479 1.6900346e-12 0)
(0.1902479 1.5838822e-12 0)
(0.1902479 1.5824287e-12 0)
(0.1902479 1.5692691e-12 0)
(0.1902479 1.530913e-12 0)
(0.1902479 1.6141393e-12 0)
(0.1902479 1.5548944e-12 0)
(0.1902479 1.6891525e-12 0)
(0.1902479 1.5924829e-12 0)
(0.1902479 1.752342e-12 0)
(0.1902479 1.6348078e-12 0)
(0.1902479 1.8208991e-12 0)
(0.1902479 1.6819704e-12 0)
(0.1902479 1.8669198e-12 0)
(0.1902479 1.70059e-12 0)
(0.1902479 1.8917871e-12 0)
(0.1902479 1.7142238e-12 0)
(0.1902479 1.9025359e-12 0)
(0.1902479 1.6762367e-12 0)
(0.1902479 1.8681398e-12 0)
(0.1902479 1.6567817e-12 0)
(0.1902479 1.9083229e-12 0)
(0.1902479 1.6487781e-12 0)
(0.1902479 1.8391673e-12 0)
(0.1902479 1.5962848e-12 0)
(0.1902479 1.9255697e-12 0)
(0.1902479 1.8043091e-12 0)
(0.1902479 2.0554736e-12 0)
(0.1902479 1.6329042e-12 0)
(0.1902479 1.4106035e-12 0)
(0.1902479 4.8870745e-13 0)
(0.1902479 4.7002752e-14 0)
(0.1902479 -7.9337189e-13 0)
(0.1902479 -8.594233e-13 0)
(0.1902479 -1.2330469e-12 0)
(0.1902479 -1.1516714e-12 0)
(0.1902479 -1.3961599e-12 0)
(0.1902479 -1.4264335e-12 0)
(0.1902479 -1.6493e-12 0)
(0.1902479 -1.4054753e-12 0)
(0.1902479 -1.5929799e-12 0)
(0.1902479 -1.3488736e-12 0)
(0.1902479 -1.4783803e-12 0)
(0.1902479 -1.2690396e-12 0)
(0.1902479 -1.3493045e-12 0)
(0.1902479 -1.1903733e-12 0)
(0.1902479 -1.293635e-12 0)
(0.1902479 -1.196242e-12 0)
(0.1902479 -1.3161485e-12 0)
(0.1902479 -1.2408405e-12 0)
(0.1902479 -1.3581974e-12 0)
(0.1902479 -1.2961482e-12 0)
(0.1902479 -1.4126479e-12 0)
(0.1902479 -1.3667408e-12 0)
(0.1902479 -1.4747014e-12 0)
(0.1902479 -1.4416633e-12 0)
(0.1902479 -1.5297541e-12 0)
(0.1902479 -1.5041247e-12 0)
(0.1902479 -1.5706944e-12 0)
(0.1902479 -1.5542141e-12 0)
(0.1902479 -1.5970631e-12 0)
(0.1902479 -1.5868164e-12 0)
(0.1902479 -1.6069825e-12 0)
(0.1902479 -1.6045544e-12 0)
(0.1902479 -1.6070595e-12 0)
(0.1902479 -1.6089746e-12 0)
(0.1902479 -1.5946615e-12 0)
(0.1902479 -1.6032715e-12 0)
(0.1902479 -1.5690073e-12 0)
(0.1902479 -1.5678584e-12 0)
(0.1902479 -1.5126789e-12 0)
(0.1902479 -1.5339924e-12 0)
(0.1902479 -1.5100582e-12 0)
(0.1902479 -1.5376668e-12 0)
(0.1902479 -1.4630439e-12 0)
(0.1902479 -1.4433713e-12 0)
(0.1902479 -1.4276888e-12 0)
(0.1902479 -1.5998062e-12 0)
(0.1902479 -1.6645523e-12 0)
(0.1902479 -1.5869195e-12 0)
(0.1902479 -1.1926791e-12 0)
(0.1902479 -5.8856516e-13 0)
(0.1902479 1.1270049e-13 0)
(0.1902479 6.5536698e-13 0)
(0.1902479 1.1067008e-12 0)
(0.1902479 1.3268853e-12 0)
(0.1902479 1.430166e-12 0)
(0.1902479 1.4353858e-12 0)
(0.1902479 1.4175251e-12 0)
(0.1902479 1.3842354e-12 0)
(0.1902479 1.3960284e-12 0)
(0.1902479 1.3725745e-12 0)
(0.1902479 1.3821383e-12 0)
(0.1902479 1.3720226e-12 0)
(0.1902479 1.3763604e-12 0)
(0.1902479 1.3690343e-12 0)
(0.1902479 1.369884e-12 0)
(0.1902479 1.3633768e-12 0)
(0.1902479 1.3597379e-12 0)
(0.1902479 1.3589383e-12 0)
(0.1902479 1.3504143e-12 0)
(0.1902479 1.3564336e-12 0)
(0.1902479 1.3410193e-12 0)
(0.1902479 1.3509165e-12 0)
(0.1902479 1.3403075e-12 0)
(0.1902479 1.3522791e-12 0)
(0.1902479 1.3479421e-12 0)
(0.1902479 1.3436764e-12 0)
(0.1902479 1.3441956e-12 0)
(0.1902479 1.3491274e-12 0)
(0.1902479 1.3603329e-12 0)
(0.1902479 1.3697691e-12 0)
(0.1902479 1.3739638e-12 0)
(0.1902479 1.3307679e-12 0)
(0.1902479 1.2793779e-12 0)
(0.1902479 1.2971368e-12 0)
(0.1902479 1.4143461e-12 0)
(0.1902479 1.5363722e-12 0)
(0.1902479 1.5292482e-12 0)
(0.1902479 1.1990755e-12 0)
(0.1902479 6.8089325e-13 0)
(0.1902479 -2.0227973e-14 0)
(0.1902479 -6.2836259e-13 0)
(0.1902479 -1.1291142e-12 0)
(0.1902479 -1.3877685e-12 0)
(0.1902479 -1.4696911e-12 0)
(0.1902479 -1.3905382e-12 0)
(0.1902479 -1.4159154e-12 0)
(0.1902479 -1.430941e-12 0)
(0.1902479 -1.5400914e-12 0)
(0.1902479 -1.372755e-12 0)
(0.1902479 -1.0645261e-12 0)
(0.1902479 -4.159996e-13 0)
(0.1902479 2.1668595e-13 0)
(0.1902479 7.9799657e-13 0)
(0.1902479 1.1969544e-12 0)
(0.1902479 1.4192469e-12 0)
(0.1902479 1.4852622e-12 0)
(0.1902479 1.4644965e-12 0)
(0.1902479 1.4019413e-12 0)
(0.1902479 1.3616192e-12 0)
(0.1902479 1.3239119e-12 0)
(0.1902479 1.3132701e-12 0)
(0.1902479 1.2807429e-12 0)
(0.1902479 1.2997285e-12 0)
(0.1902479 1.2952019e-12 0)
(0.1902479 1.3082025e-12 0)
(0.1902479 1.2587342e-12 0)
(0.1902479 1.2823086e-12 0)
(0.1902479 1.3764832e-12 0)
(0.1902479 1.583175e-12 0)
(0.1902479 1.6044748e-12 0)
(0.1902479 1.4920549e-12 0)
(0.1902479 1.0396618e-12 0)
(0.1902479 5.2916447e-13 0)
(0.1902479 -1.6166815e-13 0)
(0.1902479 -7.8539126e-13 0)
(0.1902479 -1.3079795e-12 0)
(0.1902479 -1.5514657e-12 0)
(0.1902479 -1.3776574e-12 0)
(0.1902479 -9.8224168e-13 0)
(0.1902479 -3.3901464e-13 0)
(0.1902479 3.6254487e-13 0)
(0.1902479 1.0176046e-12 0)
(0.1902479 1.5006188e-12 0)
(0.1902479 1.5257113e-12 0)
(0.1902479 1.2452433e-12 0)
(0.1902479 5.6273494e-13 0)
(0.1902479 -1.1146273e-13 0)
(0.1902479 -6.7779869e-13 0)
(0.1902479 -1.0642527e-12 0)
(0.1902479 -1.3298978e-12 0)
(0.1902479 -1.5210099e-12 0)
(0.1902479 -1.6151986e-12 0)
(0.1902479 -1.5293952e-12 0)
(0.1902479 -1.1769505e-12 0)
(0.1902479 -6.059414e-13 0)
(0.1902479 6.3882879e-14 0)
(0.1902479 6.5396878e-13 0)
(0.1902479 1.0917323e-12 0)
(0.1902479 1.3430095e-12 0)
(0.1902479 1.4526807e-12 0)
(0.1902479 1.4473879e-12 0)
(0.1902479 1.4299224e-12 0)
(0.1902479 1.3989552e-12 0)
(0.1902479 1.4171245e-12 0)
(0.1902479 1.4364982e-12 0)
(0.1902479 1.4523973e-12 0)
(0.1902479 1.3986833e-12 0)
(0.1902479 1.3734447e-12 0)
(0.1902479 1.4050824e-12 0)
(0.1902479 1.5499284e-12 0)
(0.1902479 1.6064121e-12 0)
(0.1902479 1.5039097e-12 0)
(0.1902479 1.1054578e-12 0)
(0.1902479 4.9906045e-13 0)
(0.1902479 -1.4763028e-13 0)
(0.1902479 -7.3293856e-13 0)
(0.1902479 -1.1384571e-12 0)
(0.1902479 -1.380004e-12 0)
(0.1902479 -1.4516819e-12 0)
(0.1902479 -1.3626175e-12 0)
(0.1902479 -1.3186137e-12 0)
(0.1902479 -1.3633463e-12 0)
(0.1902479 -1.5163123e-12 0)
(0.1902479 -1.578593e-12 0)
(0.1902479 -1.4863393e-12 0)
(0.1902479 -1.049787e-12 0)
(0.1902479 -4.7776301e-13 0)
(0.1902479 2.3253382e-13 0)
(0.1902479 7.8365882e-13 0)
(0.1902479 1.1997123e-12 0)
(0.1902479 1.4093718e-12 0)
(0.1902479 1.4888866e-12 0)
(0.1902479 1.4610097e-12 0)
(0.1902479 1.4236182e-12 0)
(0.1902479 1.3835493e-12 0)
(0.1902479 1.4438834e-12 0)
(0.1902479 1.4709857e-12 0)
(0.1902479 1.383235e-12 0)
(0.1902479 1.2362649e-12 0)
(0.1902479 1.4649855e-12 0)
(0.1902479 1.845117e-12 0)
(0.1902479 1.5814308e-12 0)
(0.1902479 5.5272522e-13 0)
(0.59346672 0.21467329 0)
(0.54593347 0.07599839 0)
(0.39702192 0.039312278 0)
(0.34953973 0.01972054 0)
(0.30792187 0.01072672 0)
(0.28963523 0.0061583643 0)
(0.27651264 0.0034761747 0)
(0.26994405 0.0020290995 0)
(0.26565503 0.0011409896 0)
(0.26342423 0.00065140923 0)
(0.26206335 0.00035633734 0)
(0.26136077 0.00019487796 0)
(0.26095907 0.00010129794 0)
(0.26076048 5.159417e-05 0)
(0.260656 2.4317745e-05 0)
(0.26060945 1.0644713e-05 0)
(0.26058866 3.7607627e-06 0)
(0.26058217 7.1151613e-07 0)
(0.26058122 -5.4281773e-07 0)
(0.26058278 -8.8437799e-07 0)
(0.2605848 -8.6465489e-07 0)
(0.26058673 -7.0558283e-07 0)
(0.26058825 -5.2972718e-07 0)
(0.26058939 -3.748362e-07 0)
(0.26059018 -2.554742e-07 0)
(0.26059072 -1.6858247e-07 0)
(0.26059108 -1.0860079e-07 0)
(0.2605913 -6.8384369e-08 0)
(0.26059144 -4.2245983e-08 0)
(0.26059153 -2.5599611e-08 0)
(0.26059158 -1.5238963e-08 0)
(0.26059162 -8.9003815e-09 0)
(0.26059163 -5.1001846e-09 0)
(0.26059164 -2.8586024e-09 0)
(0.26059165 -1.5634449e-09 0)
(0.26059165 -8.2883811e-10 0)
(0.26059166 -4.2299966e-10 0)
(0.26059166 -2.0408201e-10 0)
(0.26059166 -8.9938776e-11 0)
(0.26059166 -3.3399876e-11 0)
(0.26059166 -7.0690954e-12 0)
(0.26059166 3.3762493e-12 0)
(0.26059166 7.035106e-12 0)
(0.26059166 7.3325121e-12 0)
(0.26059166 6.5877578e-12 0)
(0.26059166 4.0870747e-12 0)
(0.26059166 1.7833021e-12 0)
(0.26059166 2.899041e-13 0)
(0.26059166 -5.304434e-13 0)
(0.26059166 -2.7175209e-13 0)
(0.26059166 -8.5718516e-13 0)
(0.26059166 -2.1519784e-13 0)
(0.26059166 -6.3156726e-13 0)
(0.26059166 -4.2969002e-13 0)
(0.26059166 -9.8369962e-13 0)
(0.26059166 -1.4008054e-12 0)
(0.26059166 -1.8214955e-12 0)
(0.26059166 -1.3991117e-12 0)
(0.26059166 -2.7701092e-12 0)
(0.26059166 -1.4371805e-12 0)
(0.26059166 -2.3959458e-12 0)
(0.26059166 -1.3220489e-12 0)
(0.26059166 -2.0971552e-12 0)
(0.26059166 -1.3761873e-12 0)
(0.26059166 -2.0516652e-12 0)
(0.26059166 -1.6419332e-12 0)
(0.26059166 -1.9538426e-12 0)
(0.26059166 -1.2210557e-12 0)
(0.26059166 -7.3116913e-13 0)
(0.26059166 4.4262871e-13 0)
(0.26059166 3.3595209e-13 0)
(0.26059166 1.2101087e-12 0)
(0.26059166 1.0322862e-12 0)
(0.26059166 1.5110362e-12 0)
(0.26059166 1.3293215e-12 0)
(0.26059166 1.4889303e-12 0)
(0.26059166 1.3577734e-12 0)
(0.26059166 1.3713217e-12 0)
(0.26059166 1.3520718e-12 0)
(0.26059166 1.3168051e-12 0)
(0.26059166 1.4098627e-12 0)
(0.26059166 1.3461214e-12 0)
(0.26059166 1.502297e-12 0)
(0.26059166 1.3959558e-12 0)
(0.26059166 1.5908011e-12 0)
(0.26059166 1.4602918e-12 0)
(0.26059166 1.6895104e-12 0)
(0.26059166 1.5356886e-12 0)
(0.26059166 1.7685153e-12 0)
(0.26059166 1.5820688e-12 0)
(0.26059166 1.8203346e-12 0)
(0.26059166 1.6115421e-12 0)