/*--------------------------------*- C++ -*----------------------------------*\
| =========                 |                                                 |
| \\      /  F ield         | OpenFOAM: The Open Source CFD Toolbox           |
|  \\    /   O peration     | Version:  2206                                  |
|   \\  /    A nd           | Website:  www.openfoam.com                      |
|    \\/     M anipulation  |                                                 |
\*---------------------------------------------------------------------------*/
FoamFile
{
    version     2.0;
    format      ascii;
    arch        "LSB;label=32;scalar=64";
    class       surfaceScalarField;
    location    "22";
    object      phi;
}
// * * * * * * * * * * * * * * * * * * * * * * * * * * * * * * * * * * * * * //

dimensions      [0 3 -1 0 0 0 0];

oriented        oriented;

internalField   nonuniform List<scalar> 
29650
(
6.0867649e-05
0.00020579916
3.271817e-05
2.8149481e-05
2.4599022e-05
8.1191454e-06
2.0417849e-05
4.1811645e-06
1.8552178e-05
1.8656605e-06
1.73737e-05
1.1784673e-06
1.6781661e-05
5.9202985e-07
1.6412314e-05
3.6933996e-07
1.622082e-05
1.9149072e-07
1.6106685e-05
1.1413453e-07
1.6048258e-05
5.8430056e-08
1.6015474e-05
3.2787473e-08
1.5999542e-05
1.593617e-08
1.5991376e-05
8.169e-09
1.5987889e-05
3.489485e-09
1.598644e-05
1.4500701e-09
1.5986091e-05
3.5039801e-10
1.5986138e-05
-4.7706013e-11
1.598635e-05
-2.1119607e-10
1.5986569e-05
-2.2010249e-10
1.5986762e-05
-1.9252668e-10
1.5986908e-05
-1.463606e-10
1.5987014e-05
-1.0635207e-10
1.5987087e-05
-7.2936832e-11
1.5987136e-05
-4.8808253e-11
1.5987167e-05
-3.1571843e-11
1.5987187e-05
-2.0063743e-11
1.59872e-05
-1.2446462e-11
1.5987208e-05
-7.5989413e-12
1.5987212e-05
-4.5402905e-12
1.5987215e-05
-2.6667741e-12
1.5987216e-05
-1.5329158e-12
1.5987217e-05
-8.6528237e-13
1.5987218e-05
-4.7617683e-13
1.5987218e-05
-2.5472158e-13
1.5987218e-05
-1.3012518e-13
1.5987218e-05
-6.3640868e-14
1.5987218e-05
-2.8953052e-14
1.5987218e-05
-1.2604211e-14
1.5987218e-05
-4.4907509e-15
1.5987218e-05
-5.1569059e-16
1.5987218e-05
1.8677036e-15
1.5987218e-05
3.0764824e-15
1.5987218e-05
3.3134096e-15
1.5987218e-05
2.1384032e-15
1.5987218e-05
6.9646091e-16
1.5987218e-05
5.6801361e-17
1.5987218e-05
1.1012294e-16
1.5987218e-05
4.9035231e-16
1.5987218e-05
4.516002e-16
1.5987218e-05
5.6312201e-16
1.5987218e-05
5.3047246e-16
1.5987218e-05
8.5330103e-16
1.5987218e-05
7.9224166e-16
1.5987218e-05
9.9611494e-16
1.5987218e-05
7.0413395e-16
1.5987218e-05
7.6111584e-16
1.5987218e-05
7.7843997e-16
1.5987218e-05
1.0526519e-15
1.5987218e-05
1.1875028e-15
1.5987218e-05
1.2216448e-15
1.5987218e-05
7.7801358e-16
1.5987218e-05
6.2226058e-16
1.5987218e-05
1.506937e-16
1.5987218e-05
3.1769793e-16
1.5987218e-05
1.3625901e-18
1.5987218e-05
1.4273547e-16
1.5987218e-05
-1.9195284e-16
1.5987218e-05
-1.6990547e-16
1.5987218e-05
-3.1984245e-16
1.5987218e-05
-1.6397798e-16
1.5987218e-05
-2.2999958e-16
1.5987218e-05
-2.3635966e-16
1.5987218e-05
-3.6200832e-16
1.5987218e-05
-4.4327459e-16
1.5987218e-05
-4.9600007e-16
1.5987218e-05
-5.9508578e-16
1.5987218e-05
-5.9680144e-16
1.5987218e-05
-7.5368028e-16
1.5987218e-05
-6.6262482e-16
1.5987218e-05
-8.1792405e-16
1.5987218e-05
-6.1808543e-16
1.5987218e-05
-8.0606853e-16
1.5987218e-05
-5.5731323e-16
1.5987218e-05
-8.2375479e-16
1.5987218e-05
-5.2692625e-16
1.5987218e-05
-7.9377188e-16
1.5987218e-05
-3.1827278e-16
1.5987218e-05
-5.4993896e-16
1.5987218e-05
-1.3736339e-16
1.5987218e-05
-7.7227725e-16
1.5987218e-05
-7.3943228e-16
1.5987218e-05
-1.4642242e-15
1.5987218e-05
-1.0470832e-15
1.5987218e-05
-1.1811541e-15
1.5987218e-05
-2.6226923e-16
1.5987218e-05
-3.7412022e-16
1.5987218e-05
1.9753311e-16
1.5987218e-05
-4.9322111e-16
1.5987218e-05
-1.5386604e-16
1.5987218e-05
-4.3009955e-16
1.5987218e-05
5.5230145e-16
1.5987218e-05
5.5979719e-16
1.5987218e-05
1.0442827e-15
1.5987218e-05
4.2337326e-17
1.5987218e-05
-4.5037825e-16
1.5987218e-05
-1.494978e-15
1.5987218e-05
-1.4216969e-15
1.5987218e-05
-1.3996859e-15
1.5987218e-05
-5.0366815e-16
1.5987218e-05
-4.6627665e-17
1.5987218e-05
5.9122961e-16
1.5987218e-05
5.6949093e-16
1.5987218e-05
6.986936e-16
1.5987218e-05
1.7364555e-16
1.5987218e-05
3.1281687e-16
1.5987218e-05
8.8359626e-17
1.5987218e-05
2.7161653e-16
1.5987218e-05
2.32438e-16
1.5987218e-05
3.0689121e-16
1.5987218e-05
2.3443064e-16
1.5987218e-05
1.7536613e-16
1.5987218e-05
1.1625199e-16
1.5987218e-05
2.055638e-17
1.5987218e-05
-2.8985777e-17
1.5987218e-05
-1.603634e-16
1.5987218e-05
-2.9846929e-17
1.5987218e-05
1.5460839e-16
1.5987218e-05
6.4521309e-16
1.5987218e-05
9.0875797e-16
1.5987218e-05
1.0818613e-15
1.5987218e-05
7.8791438e-16
1.5987218e-05
6.1539936e-16
1.5987218e-05
2.2379824e-16
1.5987218e-05
2.960378e-16
1.5987218e-05
9.6443799e-17
1.5987218e-05
2.9660674e-16
1.5987218e-05
1.0808867e-16
1.5987218e-05
3.0306998e-16
1.5987218e-05
8.7439372e-17
1.5987218e-05
2.7268527e-16
1.5987218e-05
4.543597e-17
1.5987218e-05
2.1486092e-16
1.5987218e-05
-1.206972e-17
1.5987218e-05
1.7766238e-16
1.5987218e-05
-1.1947183e-17
1.5987218e-05
1.706883e-16
1.5987218e-05
-3.4827074e-17
1.5987218e-05
1.6797834e-16
1.5987218e-05
6.7922358e-17
1.5987218e-05
3.3293555e-16
1.5987218e-05
1.1448567e-16
1.5987218e-05
-2.050638e-17
1.5987218e-05
-5.1556394e-16
1.5987218e-05
-4.2991482e-16
1.5987218e-05
-3.2707327e-16
1.5987218e-05
1.1642061e-16
1.5987218e-05
1.1634339e-16
1.5987218e-05
-1.4293695e-17
1.5987218e-05
-4.9908585e-16
1.5987218e-05
-7.8581496e-16
1.5987218e-05
-1.0455278e-15
1.5987218e-05
-1.0102483e-15
1.5987218e-05
-9.2208573e-16
1.5987218e-05
-7.3115896e-16
1.5987218e-05
-5.9605941e-16
1.5987218e-05
-5.4503088e-16
1.5987218e-05
-4.6667967e-16
1.5987218e-05
-5.0791863e-16
1.5987218e-05
-4.510368e-16
1.5987218e-05
-5.4014306e-16
1.5987218e-05
-4.7120704e-16
1.5987218e-05
-5.8025838e-16
1.5987218e-05
-4.8502446e-16
1.5987218e-05
-6.0861938e-16
1.5987218e-05
-4.960401e-16
1.5987218e-05
-6.4540219e-16
1.5987218e-05
-5.1954795e-16
1.5987218e-05
-6.9432574e-16
1.5987218e-05
-5.2266459e-16
1.5987218e-05
-6.8520608e-16
1.5987218e-05
-4.4290214e-16
1.5987218e-05
-6.1095756e-16
1.5987218e-05
-3.5132265e-16
1.5987218e-05
-5.3353056e-16
1.5987218e-05
-2.6259112e-16
1.5987218e-05
-4.6617641e-16
1.5987218e-05
-2.1502939e-16
1.5987218e-05
-4.4446449e-16
1.5987218e-05
-2.0368601e-16
1.5987218e-05
-4.2421733e-16
1.5987218e-05
-1.8043285e-16
1.5987218e-05
-3.7506291e-16
1.5987218e-05
-1.6101378e-16
1.5987218e-05
-3.5106379e-16
1.5987218e-05
-1.6942211e-16
1.5987218e-05
-2.5787011e-16
1.5987218e-05
-4.8441014e-17
1.5987218e-05
-3.0375078e-17
1.5987218e-05
3.9334361e-17
1.5987218e-05
-4.0279862e-17
1.5987218e-05
-1.5156948e-16
1.5987218e-05
-3.5916528e-18
1.5987218e-05
2.7381325e-16
1.5987218e-05
7.4414079e-16
1.5987218e-05
8.9054398e-16
1.5987218e-05
9.5218823e-16
1.5987218e-05
6.0468907e-16
1.5987218e-05
4.2814207e-16
1.5987218e-05
2.6726263e-16
1.5987218e-05
3.8469878e-16
1.5987218e-05
3.937589e-16
1.5987218e-05
3.591062e-16
1.5987218e-05
2.9677056e-17
1.5987218e-05
-4.2182375e-16
1.5987218e-05
-8.8257356e-16
1.5987218e-05
-1.1130261e-15
1.5987218e-05
-1.0695806e-15
1.5987218e-05
-8.0887315e-16
1.5987218e-05
-4.3110527e-16
1.5987218e-05
-1.1943789e-16
1.5987218e-05
2.3608566e-16
1.5987218e-05
2.5419976e-16
1.5987218e-05
3.6156258e-16
1.5987218e-05
1.7718035e-16
1.5987218e-05
3.3146505e-16
1.5987218e-05
2.0185051e-16
1.5987218e-05
4.2396329e-16
1.5987218e-05
3.5255873e-16
1.5987218e-05
6.6619635e-16
1.5987218e-05
6.3936439e-16
1.5987218e-05
7.1237447e-16
1.5987218e-05
2.4935256e-16
1.5987218e-05
-1.1067323e-16
1.5987218e-05
-4.6448523e-16
1.5987218e-05
-3.7884064e-16
1.5987218e-05
-2.0819934e-16
1.5987218e-05
2.820844e-17
1.5987218e-05
-7.2850091e-17
1.5987218e-05
-6.822275e-17
1.5987218e-05
-1.8839515e-17
1.5987218e-05
3.6774275e-16
1.5987218e-05
6.8696446e-16
1.5987218e-05
9.9016765e-16
1.5987218e-05
9.0875611e-16
1.5987218e-05
6.9281328e-16
1.5987218e-05
5.2549247e-16
1.5987218e-05
4.8297149e-16
1.5987218e-05
6.5832438e-16
1.5987218e-05
6.762361e-16
1.5987218e-05
5.564497e-16
1.5987218e-05
8.206941e-17
1.5987218e-05
-3.0671641e-16
1.5987218e-05
-7.1218764e-16
1.5987218e-05
-6.3694212e-16
1.5987218e-05
-5.4824399e-16
1.5987218e-05
-2.4125181e-16
1.5987218e-05
-2.4473278e-16
1.5987218e-05
-1.3679115e-16
1.5987218e-05
-2.7832611e-16
1.5987218e-05
-2.359606e-16
1.5987218e-05
-3.2881549e-16
1.5987218e-05
-2.322826e-16
1.5987218e-05
-3.1168831e-16
1.5987218e-05
-3.1917937e-16
1.5987218e-05
-4.8521643e-16
1.5987218e-05
-3.7370926e-16
1.5987218e-05
-1.7946511e-16
1.5987218e-05
2.7907189e-16
1.5987218e-05
5.7081066e-16
1.5987218e-05
8.1144487e-16
1.5987218e-05
7.9097105e-16
1.5987218e-05
6.4757696e-16
1.5987218e-05
3.6740775e-16
1.5987218e-05
-6.4517452e-18
1.5987218e-05
-4.6160934e-16
1.5987218e-05
-7.0763491e-16
1.5987218e-05
-8.2496581e-16
1.5987218e-05
-5.734604e-16
1.5987218e-05
-4.047514e-16
1.5987218e-05
-2.3506499e-16
1.5987218e-05
-2.5061767e-16
1.5987218e-05
-2.4086834e-16
1.5987218e-05
-3.2481282e-16
1.5987218e-05
-3.2468575e-16
1.5987218e-05
-3.8689455e-16
1.5987218e-05
-3.3564051e-16
1.5987218e-05
-3.2943701e-16
1.5987218e-05
-2.701851e-16
1.5987218e-05
-2.6917241e-16
1.5987218e-05
-2.5137261e-16
1.5987218e-05
-2.905523e-16
1.5987218e-05
-2.5877746e-16
1.5987218e-05
-2.1460681e-16
1.5987218e-05
-1.7640019e-16
1.5987218e-05
-3.7462107e-16
1.5987218e-05
-5.6791621e-16
1.5987218e-05
-3.6140742e-16
1.5987218e-05
3.6978722e-16
4.4011252e-16
0.00014027132
0.00033219464
9.2549244e-05
7.5871561e-05
7.0338073e-05
3.0330314e-05
5.9620314e-05
1.4898915e-05
5.4019642e-05
7.46632e-06
5.0795343e-05
4.4027534e-06
4.9011049e-05
2.3763128e-06
4.7964744e-05
1.4156366e-06
4.7384384e-05
7.7184732e-07
4.7052233e-05
4.4628476e-07
4.6872682e-05
2.3798399e-07
4.677453e-05
1.3094354e-07
4.6724187e-05
6.6284558e-08
4.6698685e-05
3.3674803e-08
4.6686925e-05
1.5252837e-08
4.6681893e-05
6.483691e-09
4.6680252e-05
1.9919153e-09
4.6680058e-05
1.4631284e-10
4.6680445e-05
-5.9801459e-10
4.6680961e-05
-7.3688006e-10
4.6681443e-05
-6.7420557e-10
4.6681826e-05
-5.2993933e-10
4.668211e-05
-3.9057791e-10
4.6682309e-05
-2.7201652e-10
4.6682444e-05
-1.8353648e-10
4.6682532e-05
-1.1990695e-10
4.6682589e-05
-7.6685388e-11
4.6682624e-05
-4.7930193e-11
4.6682646e-05
-2.9427666e-11
4.6682659e-05
-1.7707171e-11
4.6682667e-05
-1.0465033e-11
4.6682672e-05
-6.0631531e-12
4.6682674e-05
-3.4471333e-12
4.6682676e-05
-1.9149779e-12
4.6682676e-05
-1.0354151e-12
4.6682677e-05
-5.3965943e-13
4.6682677e-05
-2.6896078e-13
4.6682677e-05
-1.2670312e-13
4.6682677e-05
-5.5770609e-14
4.6682677e-05
-2.1028065e-14
4.6682677e-05
-4.1912297e-15
4.6682677e-05
3.8947011e-15
4.6682677e-05
8.2041596e-15
4.6682677e-05
8.8705809e-15
4.6682677e-05
6.2293903e-15
4.6682677e-05
2.5954935e-15
4.6682677e-05
6.2054209e-16
4.6682677e-05
3.1031337e-16
4.6682677e-05
1.2062538e-15
4.6682677e-05
6.180679e-16
4.6682677e-05
1.0425901e-15
4.6682677e-05
8.1198584e-16
4.6682677e-05
1.6987702e-15
4.6682677e-05
1.6776529e-15
4.6682677e-05
2.154227e-15
4.6682677e-05
1.6982578e-15
4.6682677e-05
1.8291125e-15
4.6682677e-05
1.425925e-15
4.6682677e-05
2.5001229e-15
4.6682677e-05
2.3604785e-15
4.6682677e-05
2.8557326e-15
4.6682677e-05
1.8114863e-15
4.6682677e-05
1.5459335e-15
4.6682677e-05
5.3937552e-16
4.6682677e-05
9.7003362e-16
4.6682677e-05
4.5350326e-16
4.6682677e-05
7.4117e-16
4.6682677e-05
2.3971833e-16
4.6682677e-05
3.4448174e-16
4.6682677e-05
-1.440921e-16
4.6682677e-05
3.1770543e-16
4.6682677e-05
-1.892784e-16
4.6682677e-05
4.4550938e-17
4.6682677e-05
-5.0528159e-16
4.6682677e-05
-4.1148327e-16
4.6682677e-05
-8.0268213e-16
4.6682677e-05
-6.9840784e-16
4.6682677e-05
-1.054993e-15
4.6682677e-05
-1.0328757e-15
4.6682677e-05
-1.2635194e-15
4.6682677e-05
-1.1602045e-15
4.6682677e-05
-1.1980133e-15
4.6682677e-05
-1.1059633e-15
4.6682677e-05
-1.1022801e-15
4.6682677e-05
-1.1249559e-15
4.6682677e-05
-1.1007843e-15
4.6682677e-05
-1.0811278e-15
4.6682677e-05
-7.4230731e-16
4.6682677e-05
-5.3280414e-16
4.6682677e-05
-2.4420496e-16
4.6682677e-05
-9.4820469e-16
4.6682677e-05
-1.6136739e-15
4.6682677e-05
-2.6584678e-15
4.6682677e-05
-2.6420468e-15
4.6682677e-05
-2.225601e-15
4.6682677e-05
-1.1189365e-15
4.6682677e-05
-4.2689558e-16
4.6682677e-05
-7.5657443e-17
4.6682677e-05
-6.1049584e-16
4.6682677e-05
-1.0641705e-15
4.6682677e-05
-8.5892248e-16
4.6682677e-05
2.3178734e-16
4.6682677e-05
1.4699355e-15
4.6682677e-05
1.8265716e-15
4.6682677e-05
6.0053342e-16
4.6682677e-05
-1.3566371e-15
4.6682677e-05
-3.0099871e-15
4.6682677e-05
-3.5249338e-15
4.6682677e-05
-2.7256156e-15
4.6682677e-05
-1.1692607e-15
4.6682677e-05
3.0919135e-16
4.6682677e-05
1.2254767e-15
4.6682677e-05
1.3192381e-15
4.6682677e-05
7.1303308e-16
4.6682677e-05
5.8564857e-16
4.6682677e-05
-1.6073085e-16
4.6682677e-05
2.499814e-16
4.6682677e-05
3.3672882e-18
4.6682677e-05
5.2816168e-16
4.6682677e-05
2.4936441e-16
4.6682677e-05
4.6770441e-16
4.6682677e-05
-5.588285e-18
4.6682677e-05
1.297003e-16
4.6682677e-05
-2.9346408e-16
4.6682677e-05
-2.1089941e-16
4.6682677e-05
-6.7440932e-16
4.6682677e-05
-3.2940924e-16
4.6682677e-05
-1.0408244e-16
4.6682677e-05
1.1731411e-15
4.6682677e-05
1.7400818e-15
4.6682677e-05
2.3223454e-15
4.6682677e-05
1.7559958e-15
4.6682677e-05
1.3446551e-15
4.6682677e-05
5.7659299e-16
4.6682677e-05
6.6479454e-16
4.6682677e-05
3.5552048e-16
4.6682677e-05
6.9503149e-16
4.6682677e-05
4.3059815e-16
4.6682677e-05
7.2357758e-16
4.6682677e-05
4.1096471e-16
4.6682677e-05
6.7306531e-16
4.6682677e-05
3.497801e-16
4.6682677e-05
5.6556957e-16
4.6682677e-05
2.4287602e-16
4.6682677e-05
4.965643e-16
4.6682677e-05
2.5466851e-16
4.6682677e-05
4.9988161e-16
4.6682677e-05
2.2369425e-16
4.6682677e-05
4.8187872e-16
4.6682677e-05
4.3884251e-16
4.6682677e-05
9.0999855e-16
4.6682677e-05
6.6847946e-16
4.6682677e-05
2.1862814e-16
4.6682677e-05
-7.4569409e-16
4.6682677e-05
-8.6810577e-16
4.6682677e-05
-5.8880697e-16
4.6682677e-05
4.0217576e-16
4.6682677e-05
5.872116e-16
4.6682677e-05
2.360437e-16
4.6682677e-05
-7.3996751e-16
4.6682677e-05
-1.5310074e-15
4.6682677e-05
-2.0832303e-15
4.6682677e-05
-2.0997389e-15
4.6682677e-05
-1.9096206e-15
4.6682677e-05
-1.5450545e-15
4.6682677e-05
-1.3047844e-15
4.6682677e-05
-1.1604622e-15
4.6682677e-05
-1.0424837e-15
4.6682677e-05
-1.0741714e-15
4.6682677e-05
-1.0187988e-15
4.6682677e-05
-1.1410549e-15
4.6682677e-05
-1.0781716e-15
4.6682677e-05
-1.2258306e-15
4.6682677e-05
-1.1187111e-15
4.6682677e-05
-1.2780936e-15
4.6682677e-05
-1.1348553e-15
4.6682677e-05
-1.3342899e-15
4.6682677e-05
-1.1615191e-15
4.6682677e-05
-1.3994344e-15
4.6682677e-05
-1.1688932e-15
4.6682677e-05
-1.3710205e-15
4.6682677e-05
-1.0445226e-15
4.6682677e-05
-1.2189659e-15
4.6682677e-05
-8.9169241e-16
4.6682677e-05
-1.0880996e-15
4.6682677e-05
-7.4964623e-16
4.6682677e-05
-9.6837439e-16
4.6682677e-05
-6.725021e-16
4.6682677e-05
-9.6538794e-16
4.6682677e-05
-6.902377e-16
4.6682677e-05
-9.8064169e-16
4.6682677e-05
-6.8558049e-16
4.6682677e-05
-9.6503617e-16
4.6682677e-05
-7.1229474e-16
4.6682677e-05
-1.0261516e-15
4.6682677e-05
-8.3262082e-16
4.6682677e-05
-9.6684649e-16
4.6682677e-05
-6.5362402e-16
4.6682677e-05
-5.8337176e-16
4.6682677e-05
-4.3157363e-16
4.6682677e-05
-5.9428058e-16
4.6682677e-05
-7.889066e-16
4.6682677e-05
-5.3778683e-16
4.6682677e-05
2.1441899e-16
4.6682677e-05
1.2747961e-15
4.6682677e-05
1.889562e-15
4.6682677e-05
2.0373322e-15
4.6682677e-05
1.441349e-15
4.6682677e-05
1.0163192e-15
4.6682677e-05
7.3432016e-16
4.6682677e-05
1.013871e-15
4.6682677e-05
1.1247741e-15
4.6682677e-05
1.1227109e-15
4.6682677e-05
4.4659739e-16
4.6682677e-05
-5.5343769e-16
4.6682677e-05
-1.618607e-15
4.6682677e-05
-2.2067745e-15
4.6682677e-05
-2.1487526e-15
4.6682677e-05
-1.6498489e-15
4.6682677e-05
-8.1425113e-16
4.6682677e-05
-1.0847514e-16
4.6682677e-05
6.8512078e-16
4.6682677e-05
8.9594536e-16
4.6682677e-05
1.0102758e-15
4.6682677e-05
6.2501242e-16
4.6682677e-05
7.6739984e-16
4.6682677e-05
5.8705633e-16
4.6682677e-05
8.8560988e-16
4.6682677e-05
8.0072555e-16
4.6682677e-05
1.3353708e-15
4.6682677e-05
1.4197342e-15
4.6682677e-05
1.5528839e-15
4.6682677e-05
5.8038341e-16
4.6682677e-05
-2.39338e-16
4.6682677e-05
-1.1671756e-15
4.6682677e-05
-1.0848527e-15
4.6682677e-05
-6.3409467e-16
4.6682677e-05
-1.9855928e-16
4.6682677e-05
-3.5325123e-16
4.6682677e-05
-5.2688812e-16
4.6682677e-05
-3.9254144e-16
4.6682677e-05
2.9953316e-16
4.6682677e-05
1.1987244e-15
4.6682677e-05
1.860744e-15
4.6682677e-05
1.8172021e-15
4.6682677e-05
1.3634285e-15
4.6682677e-05
9.1346924e-16
4.6682677e-05
8.4397384e-16
4.6682677e-05
1.2247934e-15
4.6682677e-05
1.4061021e-15
4.6682677e-05
1.2359809e-15
4.6682677e-05
3.5357904e-16
4.6682677e-05
-5.9260439e-16
4.6682677e-05
-1.4708242e-15
4.6682677e-05
-1.448841e-15
4.6682677e-05
-1.1923622e-15
4.6682677e-05
-6.2283914e-16
4.6682677e-05
-5.1518429e-16
4.6682677e-05
-4.1730652e-16
4.6682677e-05
-6.2378702e-16
4.6682677e-05
-6.7026752e-16
4.6682677e-05
-7.9585867e-16
4.6682677e-05
-6.6795234e-16
4.6682677e-05
-7.5041957e-16
4.6682677e-05
-8.5404282e-16
4.6682677e-05
-1.1738421e-15
4.6682677e-05
-1.084309e-15
4.6682677e-05
-6.1786556e-16
4.6682677e-05
3.4838813e-16
4.6682677e-05
1.1084256e-15
4.6682677e-05
1.7025772e-15
4.6682677e-05
1.7194113e-15
4.6682677e-05
1.5285716e-15
4.6682677e-05
1.0010979e-15
4.6682677e-05
2.1643201e-16
4.6682677e-05
-7.4983397e-16
4.6682677e-05
-1.4965063e-15
4.6682677e-05
-1.7658363e-15
4.6682677e-05
-1.3057857e-15
4.6682677e-05
-9.2791786e-16
4.6682677e-05
-5.6540274e-16
4.6682677e-05
-6.1247311e-16
4.6682677e-05
-6.0048984e-16
4.6682677e-05
-7.8555584e-16
4.6682677e-05
-8.0360297e-16
4.6682677e-05
-9.0820458e-16
4.6682677e-05
-8.1401617e-16
4.6682677e-05
-8.228128e-16
4.6682677e-05
-6.8131505e-16
4.6682677e-05
-6.9619491e-16
4.6682677e-05
-6.4115503e-16
4.6682677e-05
-7.481445e-16
4.6682677e-05
-6.9088284e-16
4.6682677e-05
-6.136177e-16
4.6682677e-05
-4.6357276e-16
4.6682677e-05
-8.4407761e-16
4.6682677e-05
-1.4118176e-15
4.6682677e-05
-1.1744255e-15
4.6682677e-05
5.6097507e-16
1.1413982e-15
0.00019469214
0.0004041693
0.00014360962
0.00012695408
0.00011230147
6.1638454e-05
9.6619294e-05
3.0581093e-05
8.7762221e-05
1.6323393e-05
8.2755406e-05
9.4095687e-06
7.9871701e-05
5.2600177e-06
7.8206033e-05
3.0813037e-06
7.7256668e-05
1.7212109e-06
7.6718195e-05
9.8475606e-07
7.6420462e-05
5.3571371e-07
7.6258218e-05
2.9318565e-07
7.6172993e-05
1.5150806e-07
7.61296e-05
7.7066738e-08
7.6108851e-05
3.6001183e-08
7.6099695e-05
1.5639241e-08
7.6096324e-05
5.362985e-09
7.6095587e-05
8.8339812e-10
7.6095937e-05
-9.4698403e-10
7.6096611e-05
-1.4112905e-09
7.609729e-05
-1.3534033e-09
7.6097854e-05
-1.0933339e-09
7.609828e-05
-8.1669008e-10
7.6098584e-05
-5.755289e-10
7.6098791e-05
-3.9120856e-10
7.6098929e-05
-2.574878e-10
7.6099018e-05
-1.655515e-10
7.6099074e-05
-1.0404506e-10
7.6099108e-05
-6.4168844e-11
7.609913e-05
-3.8809904e-11
7.6099142e-05
-2.3054207e-11
7.609915e-05
-1.3432416e-11
7.6099154e-05
-7.6774409e-12
7.6099156e-05
-4.291403e-12
7.6099157e-05
-2.3388646e-12
7.6099158e-05
-1.2335794e-12
7.6099158e-05
-6.2558677e-13
7.6099159e-05
-3.0027942e-13
7.6099159e-05
-1.3395448e-13
7.6099159e-05
-5.1206498e-14
7.6099159e-05
-1.194518e-14
7.6099159e-05
5.9184694e-15
7.6099159e-05
1.2889485e-14
7.6099159e-05
1.3511721e-14
7.6099159e-05
9.9201758e-15
7.6099159e-05
5.5390022e-15
7.6099159e-05
3.274554e-15
7.6099159e-05
2.6797374e-15
7.6099159e-05
3.0949459e-15
7.6099159e-05
2.4092691e-15
7.6099159e-05
2.390609e-15
7.6099159e-05
2.0193142e-15
7.6099159e-05
2.6153942e-15
7.6099159e-05
2.4678856e-15
7.6099159e-05
2.8669796e-15
7.6099159e-05
2.3295384e-15
7.6099159e-05
2.4458027e-15
7.6099159e-05
2.2310017e-15
7.6099159e-05
2.7912468e-15
7.6099159e-05
2.7298661e-15
7.6099159e-05
2.7618585e-15
7.6099159e-05
1.778016e-15
7.6099159e-05
1.3896831e-15
7.6099159e-05
4.2060702e-16
7.6099159e-05
7.3997182e-16
7.6099159e-05
1.7271896e-16
7.6099159e-05
3.845109e-16
7.6099159e-05
-2.7839667e-16
7.6099159e-05
-3.1566669e-16
7.6099159e-05
-7.471559e-16
7.6099159e-05
-4.8258932e-16
7.6099159e-05
-7.8755861e-16
7.6099159e-05
-7.5317118e-16
7.6099159e-05
-1.1215672e-15
7.6099159e-05
-1.2104679e-15
7.6099159e-05
-1.4245516e-15
7.6099159e-05
-1.513334e-15
7.6099159e-05
-1.6548173e-15
7.6099159e-05
-1.8566414e-15
7.6099159e-05
-1.8564739e-15
7.6099159e-05
-2.0384595e-15
7.6099159e-05
-1.8309623e-15
7.6099159e-05
-2.0470744e-15
7.6099159e-05
-1.7528103e-15
7.6099159e-05
-2.0989122e-15
7.6099159e-05
-1.7191237e-15
7.6099159e-05
-2.0258025e-15
7.6099159e-05
-1.3054191e-15
7.6099159e-05
-1.5376252e-15
7.6099159e-05
-9.7278922e-16
7.6099159e-05
-2.0800619e-15
7.6099159e-05
-2.2868151e-15
7.6099159e-05
-3.4051009e-15
7.6099159e-05
-2.6346823e-15
7.6099159e-05
-2.3806541e-15
7.6099159e-05
-6.1673399e-16
7.6099159e-05
-3.8682425e-16
7.6099159e-05
4.9950535e-16
7.6099159e-05
-5.1550057e-16
7.6099159e-05
-1.9930609e-16
7.6099159e-05
-3.8499144e-16
7.6099159e-05
1.214261e-15
7.6099159e-05
1.5249077e-15
7.6099159e-05
1.9209163e-15
7.6099159e-05
-6.2245837e-17
7.6099159e-05
-1.5240757e-15
7.6099159e-05
-3.4454124e-15
7.6099159e-05
-3.4635321e-15
7.6099159e-05
-2.982411e-15
7.6099159e-05
-1.1193684e-15
7.6099159e-05
2.4688685e-16
7.6099159e-05
1.5025029e-15
7.6099159e-05
1.6507237e-15
7.6099159e-05
1.5957006e-15
7.6099159e-05
9.5537649e-16
7.6099159e-05
7.8692266e-16
7.6099159e-05
6.6695439e-16
7.6099159e-05
7.5360843e-16
7.6099159e-05
9.4693675e-16
7.6099159e-05
9.2486396e-16
7.6099159e-05
9.8401709e-16
7.6099159e-05
7.2082308e-16
7.6099159e-05
7.1566649e-16
7.6099159e-05
3.9439746e-16
7.6099159e-05
3.7229594e-16
7.6099159e-05
4.6365457e-17
7.6099159e-05
4.1671734e-16
7.6099159e-05
7.6383371e-16
7.6099159e-05
1.8728264e-15
7.6099159e-05
2.2838434e-15
7.6099159e-05
2.5169264e-15
7.6099159e-05
1.7269303e-15
7.6099159e-05
1.1999472e-15
7.6099159e-05
3.0924707e-16
7.6099159e-05
3.5295017e-16
7.6099159e-05
-7.1525198e-17
7.6099159e-05
2.7667228e-16
7.6099159e-05
-6.9903243e-17
7.6099159e-05
2.7160426e-16
7.6099159e-05
-1.1502504e-16
7.6099159e-05
2.0780991e-16
7.6099159e-05
-1.9727464e-16
7.6099159e-05
8.7978851e-17
7.6099159e-05
-3.1068958e-16
7.6099159e-05
2.0375121e-17
7.6099159e-05
-2.9842744e-16
7.6099159e-05
1.5825887e-17
7.6099159e-05
-3.3209729e-16
7.6099159e-05
2.7474524e-17
7.6099159e-05
-9.722062e-17
7.6099159e-05
3.9022541e-16
7.6099159e-05
-4.2802911e-19
7.6099159e-05
-3.6267674e-16
7.6099159e-05
-1.2626093e-15
7.6099159e-05
-1.0472276e-15
7.6099159e-05
-6.853281e-16
7.6099159e-05
2.7260856e-16
7.6099159e-05
3.119432e-16
7.6099159e-05
-2.4666549e-17
7.6099159e-05
-9.8615769e-16
7.6099159e-05
-1.5792711e-15
7.6099159e-05
-2.0370225e-15
7.6099159e-05
-1.9223647e-15
7.6099159e-05
-1.6872988e-15
7.6099159e-05
-1.2508171e-15
7.6099159e-05
-9.5423248e-16
7.6099159e-05
-7.9691943e-16
7.6099159e-05
-6.4369935e-16
7.6099159e-05
-6.9327733e-16
7.6099159e-05
-6.0812094e-16
7.6099159e-05
-7.6029359e-16
7.6099159e-05
-6.676591e-16
7.6099159e-05
-8.5857619e-16
7.6099159e-05
-7.1943028e-16
7.6099159e-05
-9.2985894e-16
7.6099159e-05
-7.5310718e-16
7.6099159e-05
-1.0041864e-15
7.6099159e-05
-7.9304717e-16
7.6099159e-05
-1.0845153e-15
7.6099159e-05
-7.8923866e-16
7.6099159e-05
-1.048686e-15
7.6099159e-05
-6.3077441e-16
7.6099159e-05
-8.8711682e-16
7.6099159e-05
-4.4350011e-16
7.6099159e-05
-7.2377079e-16
7.6099159e-05
-2.5617858e-16
7.6099159e-05
-5.6806563e-16
7.6099159e-05
-1.35296e-16
7.6099159e-05
-5.2059975e-16
7.6099159e-05
-1.2512375e-16
7.6099159e-05
-5.290248e-16
7.6099159e-05
-1.4660875e-16
7.6099159e-05
-5.494526e-16
7.6099159e-05
-2.3328788e-16
7.6099159e-05
-6.5965656e-16
7.6099159e-05
-3.9981554e-16
7.6099159e-05
-6.2852799e-16
7.6099159e-05
-2.5972759e-16
7.6099159e-05
-2.4793483e-16
7.6099159e-05
-6.7835897e-17
7.6099159e-05
-2.0154186e-16
7.6099159e-05
-2.8417068e-16
7.6099159e-05
1.0598284e-16
7.6099159e-05
8.7406841e-16
7.6099159e-05
1.8399037e-15
7.6099159e-05
2.1763798e-15
7.6099159e-05
2.0967778e-15
7.6099159e-05
1.2965643e-15
7.6099159e-05
7.5877817e-16
7.6099159e-05
3.9291821e-16
7.6099159e-05
5.5713984e-16
7.6099159e-05
5.6764112e-16
7.6099159e-05
4.2527246e-16
7.6099159e-05
-2.7155259e-16
7.6099159e-05
-1.2136635e-15
7.6099159e-05
-2.0356781e-15
7.6099159e-05
-2.3304408e-15
7.6099159e-05
-1.9647036e-15
7.6099159e-05
-1.2453345e-15
7.6099159e-05
-2.6547289e-16
7.6099159e-05
4.4360408e-16
7.6099159e-05
1.1410362e-15
7.6099159e-05
1.0501613e-15
7.6099159e-05
1.045676e-15
7.6099159e-05
4.6404937e-16
7.6099159e-05
5.5257164e-16
7.6099159e-05
1.5739077e-16
7.6099159e-05
4.5633558e-16
7.6099159e-05
2.763378e-16
7.6099159e-05
8.3971014e-16
7.6099159e-05
7.8910973e-16
7.6099159e-05
8.7739706e-16
7.6099159e-05
-9.8448402e-17
7.6099159e-05
-7.8514293e-16
7.6099159e-05
-1.3815922e-15
7.6099159e-05
-1.0249195e-15
7.6099159e-05
-4.5345355e-16
7.6099159e-05
1.3440405e-16
7.6099159e-05
5.8288439e-17
7.6099159e-05
8.9256447e-17
7.6099159e-05
2.8119395e-16
7.6099159e-05
1.0218885e-15
7.6099159e-05
1.6756441e-15
7.6099159e-05
2.0970567e-15
7.6099159e-05
1.7336145e-15
7.6099159e-05
1.11229e-15
7.6099159e-05
6.1411884e-16
7.6099159e-05
4.6215e-16
7.6099159e-05
7.7378072e-16
7.6099159e-05
8.0656818e-16
7.6099159e-05
5.3572416e-16
7.6099159e-05
-3.9667228e-16
7.6099159e-05
-1.1508608e-15
7.6099159e-05
-1.8014822e-15
7.6099159e-05
-1.4556308e-15
7.6099159e-05
-1.0469999e-15
7.6099159e-05
-2.9419721e-16
7.6099159e-05
-1.5210857e-16
7.6099159e-05
8.067976e-17
7.6099159e-05
-1.4836665e-16
7.6099159e-05
-1.0888837e-16
7.6099159e-05
-2.8230936e-16
7.6099159e-05
-1.3913664e-16
7.6099159e-05
-3.1057707e-16
7.6099159e-05
-3.8159927e-16
7.6099159e-05
-6.9882176e-16
7.6099159e-05
-4.6133241e-16
7.6099159e-05
1.3082554e-17
7.6099159e-05
9.6521617e-16
7.6099159e-05
1.5310581e-15
7.6099159e-05
1.9150833e-15
7.6099159e-05
1.7010039e-15
7.6099159e-05
1.2783155e-15
7.6099159e-05
5.4286181e-16
7.6099159e-05
-3.4609926e-16
7.6099159e-05
-1.3129741e-15
7.6099159e-05
-1.7810688e-15
7.6099159e-05
-1.8426141e-15
7.6099159e-05
-1.1378472e-15
7.6099159e-05
-6.5374626e-16
7.6099159e-05
-1.717498e-16
7.6099159e-05
-1.5100297e-16
7.6099159e-05
-9.2013572e-17
7.6099159e-05
-2.7797647e-16
7.6099159e-05
-2.86722e-16
7.6099159e-05
-4.2924953e-16
7.6099159e-05
-3.2727434e-16
7.6099159e-05
-3.3777109e-16
7.6099159e-05
-2.0841495e-16
7.6099159e-05
-2.2735636e-16
7.6099159e-05
-1.8475641e-16
7.6099159e-05
-2.8245893e-16
7.6099159e-05
-2.0919494e-16
7.6099159e-05
-1.3417808e-16
7.6099159e-05
-5.2996255e-17
7.6099159e-05
-4.7638934e-16
7.6099159e-05
-8.7043008e-16
7.6099159e-05
-4.229701e-16
7.6099159e-05
1.1456617e-15
1.192754e-15
0.00023312986
0.00043770623
0.00018548527
0.00017459867
0.00015018421
9.6939502e-05
0.0001310242
4.9741101e-05
0.00011965162
2.7695971e-05
0.0001131446
1.591659e-05
0.00010931814
9.0864772e-06
0.00010710183
5.2976108e-06
0.0001058215
3.0015432e-06
0.00010509347
1.7127782e-06
0.00010468612
9.4305278e-07
0.00010446306
5.1623803e-07
0.00010434425
2.703176e-07
0.00010428311
1.3819911e-07
0.00010425319
6.5919038e-08
0.00010423959
2.9238143e-08
0.0001042342
1.0754685e-08
0.00010423268
2.4057243e-09
0.00010423281
-1.0807346e-09
0.00010423352
-2.1167877e-09
0.00010423431
-2.1449126e-09
0.000104235
-1.7801434e-09
0.00010423553
-1.3486368e-09
0.00010423592
-9.6073342e-10
0.00010423618
-6.57793e-10
0.00010423636
-4.3577412e-10
0.00010423648
-2.8157625e-10
0.00010423655
-1.7781247e-10
0.0001042366
-1.1011759e-10
0.00010423662
-6.6889615e-11
0.00010423664
-3.9898698e-11
0.00010423665
-2.3350132e-11
0.00010423666
-1.3404495e-11
0.00010423666
-7.53082e-12
0.00010423666
-4.1295374e-12
0.00010423666
-2.1969174e-12
0.00010423666
-1.1249677e-12
0.00010423666
-5.4698813e-13
0.00010423666
-2.4722967e-13
0.00010423666
-9.7106712e-14
0.00010423666
-2.5335787e-14
0.00010423666
6.6804132e-15
0.00010423666
1.887689e-14
0.00010423666
1.9203241e-14
0.00010423666
1.4198501e-14
0.00010423666
9.0745322e-15
0.00010423666
6.9146895e-15
0.00010423666
6.3860653e-15
0.00010423666
6.9332146e-15
0.00010423666
5.5601793e-15
0.00010423666
5.4065606e-15
0.00010423666
4.4294586e-15
0.00010423666
4.9274189e-15
0.00010423666
4.3923695e-15
0.00010423666
4.6382266e-15
0.00010423666
3.7617231e-15
0.00010423666
3.77012e-15
0.00010423666
3.0463803e-15
0.00010423666
3.5996629e-15
0.00010423666
2.564993e-15
0.00010423666
2.4485879e-15
0.00010423666
1.1319301e-15
0.00010423666
9.5307672e-16
0.00010423666
-1.5473776e-16
0.00010423666
2.0281807e-16
0.00010423666
-5.1893356e-16
0.00010423666
-4.6177083e-16
0.00010423666
-1.4929198e-15
0.00010423666
-1.7391588e-15
0.00010423666
-2.4185043e-15
0.00010423666
-1.9516945e-15
0.00010423666
-2.4284208e-15
0.00010423666
-2.1955178e-15
0.00010423666
-2.7057969e-15
0.00010423666
-2.6285812e-15
0.00010423666
-2.9789945e-15
0.00010423666
-2.865349e-15
0.00010423666
-3.1301035e-15
0.00010423666
-3.1304929e-15
0.00010423666
-3.332014e-15
0.00010423666
-3.3772798e-15
0.00010423666
-3.4235839e-15
0.00010423666
-3.4775497e-15
0.00010423666
-3.4109282e-15
0.00010423666
-3.5545992e-15
0.00010423666
-3.3569142e-15
0.00010423666
-3.4023197e-15
0.00010423666
-2.9251925e-15
0.00010423666
-3.051054e-15
0.00010423666
-2.8797116e-15
0.00010423666
-3.8232449e-15
0.00010423666
-3.9352752e-15
0.00010423666
-4.2279167e-15
0.00010423666
-2.9593573e-15
0.00010423666
-1.7489054e-15
0.00010423666
-3.7409351e-17
0.00010423666
6.7225538e-16
0.00010423666
1.2837673e-15
0.00010423666
8.0270312e-16
0.00010423666
1.0300329e-15
0.00010423666
1.4222628e-15
0.00010423666
2.4239358e-15
0.00010423666
2.4435771e-15
0.00010423666
1.4749214e-15
0.00010423666
-5.5292176e-16
0.00010423666
-2.0941753e-15
0.00010423666
-3.1443963e-15
0.00010423666
-3.00608e-15
0.00010423666
-1.8358779e-15
0.00010423666
-2.7871797e-17
0.00010423666
1.5233901e-15
0.00010423666
2.7649406e-15
0.00010423666
3.1124135e-15
0.00010423666
2.8259112e-15
0.00010423666
2.7794421e-15
0.00010423666
2.038944e-15
0.00010423666
2.2929167e-15
0.00010423666
1.9129539e-15
0.00010423666
2.3840537e-15
0.00010423666
2.1272577e-15
0.00010423666
2.5378984e-15
0.00010423666
2.1503178e-15
0.00010423666
2.3487973e-15
0.00010423666
1.822784e-15
0.00010423666