/*--------------------------------*- C++ -*----------------------------------*\
| =========                 |                                                 |
| \\      /  F ield         | OpenFOAM: The Open Source CFD Toolbox           |
|  \\    /   O peration     | Version:  2206                                  |
|   \\  /    A nd           | Website:  www.openfoam.com                      |
|    \\/     M anipulation  |                                                 |
\*---------------------------------------------------------------------------*/
FoamFile
{
    version     2.0;
    format      ascii;
    arch        "LSB;label=32;scalar=64";
    class       volVectorField;
    location    "22";
    object      U;
}
// * * * * * * * * * * * * * * * * * * * * * * * * * * * * * * * * * * * * * //

dimensions      [0 1 -1 0 0 0 0];

internalField   nonuniform List<vector> 
15000
(
(0.15962853 0.053997679 0)
(0.11557193 0.0064916405 0)
(0.064251363 0.0014144184 0)
(0.055918599 0.0007495973 0)
(0.047595817 0.00028826504 0)
(0.044708799 0.00019884044 0)
(0.042412494 9.0520669e-05 0)
(0.041406637 6.0128191e-05 0)
(0.040707475 2.8981036e-05 0)
(0.040376989 1.802203e-05 0)
(0.040167797 8.6644664e-06 0)
(0.040068659 4.9976665e-06 0)
(0.040011054 2.2690041e-06 0)
(0.039985308 1.1747319e-06 0)
(0.039971973 4.4723856e-07 0)
(0.039967049 1.7417007e-07 0)
(0.03996518 1.4191425e-08 0)
(0.039965128 -3.0201128e-08 0)
(0.039965544 -4.8722861e-08 0)
(0.039966152 -4.3304987e-08 0)
(0.03996668 -3.5802656e-08 0)
(0.039967111 -2.6081031e-08 0)
(0.039967422 -1.8563592e-08 0)
(0.039967642 -1.2458948e-08 0)
(0.03996779 -8.2313597e-09 0)
(0.039967887 -5.2466258e-09 0)
(0.039967949 -3.3007741e-09 0)
(0.039967988 -2.0240074e-09 0)
(0.039968012 -1.224437e-09 0)
(0.039968026 -7.2337319e-10 0)
(0.039968035 -4.2036836e-10 0)
(0.03996804 -2.3850908e-10 0)
(0.039968042 -1.329826e-10 0)
(0.039968044 -7.2031993e-11 0)
(0.039968045 -3.7780492e-11 0)
(0.039968045 -1.863811e-11 0)
(0.039968045 -8.7289105e-12 0)
(0.039968046 -3.7057122e-12 0)
(0.039968046 -1.5517376e-12 0)
(0.039968046 -4.9021398e-13 0)
(0.039968046 4.7780025e-14 0)
(0.039968046 4.6047353e-13 0)
(0.039968046 7.1601834e-13 0)
(0.039968046 7.7279815e-13 0)
(0.039968046 4.894042e-13 0)
(0.039968046 1.2182383e-13 0)
(0.039968046 -4.1239117e-14 0)
(0.039968046 -2.3928352e-14 0)
(0.039968046 8.9104891e-14 0)
(0.039968046 7.8947111e-14 0)
(0.039968046 1.2012164e-13 0)
(0.039968046 1.1342485e-13 0)
(0.039968046 2.0764609e-13 0)
(0.039968046 1.9318037e-13 0)
(0.039968046 2.5040587e-13 0)
(0.039968046 1.7173953e-13 0)
(0.039968046 1.8686409e-13 0)
(0.039968046 1.8628828e-13 0)
(0.039968046 2.7331e-13 0)
(0.039968046 3.0702771e-13 0)
(0.039968046 3.2921683e-13 0)
(0.039968046 2.0996639e-13 0)
(0.039968046 1.726319e-13 0)
(0.039968046 4.5725872e-14 0)
(0.039968046 9.4485802e-14 0)
(0.039968046 1.0427753e-14 0)
(0.039968046 5.0677309e-14 0)
(0.039968046 -3.7931535e-14 0)
(0.039968046 -2.9661021e-14 0)
(0.039968046 -7.1813175e-14 0)
(0.039968046 -2.6686886e-14 0)
(0.039968046 -4.8906433e-14 0)
(0.039968046 -4.5403273e-14 0)
(0.039968046 -8.3586884e-14 0)
(0.039968046 -1.0022829e-13 0)
(0.039968046 -1.1908098e-13 0)
(0.039968046 -1.4063838e-13 0)
(0.039968046 -1.4652643e-13 0)
(0.039968046 -1.8267697e-13 0)
(0.039968046 -1.643291e-13 0)
(0.039968046 -1.9907757e-13 0)
(0.039968046 -1.5209523e-13 0)
(0.039968046 -1.9453881e-13 0)
(0.039968046 -1.3523175e-13 0)
(0.039968046 -1.9859531e-13 0)
(0.039968046 -1.2788875e-13 0)
(0.039968046 -1.9097649e-13 0)
(0.039968046 -7.3605556e-14 0)
(0.039968046 -1.2472572e-13 0)
(0.039968046 -2.0786538e-14 0)
(0.039968046 -1.8065179e-13 0)
(0.039968046 -1.8258163e-13 0)
(0.039968046 -3.7234856e-13 0)
(0.039968046 -2.7778081e-13 0)
(0.039968046 -3.1103262e-13 0)
(0.039968046 -8.0910911e-14 0)
(0.039968046 -1.0020901e-13 0)
(0.039968046 3.9357093e-14 0)
(0.039968046 -1.3275034e-13 0)
(0.039968046 -5.9194558e-14 0)
(0.039968046 -1.252557e-13 0)
(0.039968046 1.253905e-13 0)
(0.039968046 1.464052e-13 0)
(0.039968046 2.7444888e-13 0)
(0.039968046 2.4861881e-14 0)
(0.039968046 -1.1667656e-13 0)
(0.039968046 -3.9019409e-13 0)
(0.039968046 -3.8053416e-13 0)
(0.039968046 -3.6989891e-13 0)
(0.039968046 -1.3828524e-13 0)
(0.039968046 -1.2103089e-14 0)
(0.039968046 1.5084313e-13 0)
(0.039968046 1.451828e-13 0)
(0.039968046 1.6750078e-13 0)
(0.039968046 3.971953e-14 0)
(0.039968046 6.262229e-14 0)
(0.039968046 1.500009e-14 0)
(0.039968046 5.5043583e-14 0)
(0.039968046 5.332152e-14 0)
(0.039968046 6.6003151e-14 0)
(0.039968046 5.1470776e-14 0)
(0.039968046 2.9725588e-14 0)
(0.039968046 1.8010825e-14 0)
(0.039968046 -1.0500257e-14 0)
(0.039968046 -2.0594907e-14 0)
(0.039968046 -5.9425787e-14 0)
(0.039968046 -2.44018e-14 0)
(0.039968046 2.1265233e-14 0)
(0.039968046 1.5672928e-13 0)
(0.039968046 2.2945102e-13 0)
(0.039968046 2.8373682e-13 0)
(0.039968046 2.1076883e-13 0)
(0.039968046 1.6871314e-13 0)
(0.039968046 6.6590185e-14 0)
(0.039968046 8.7406552e-14 0)
(0.039968046 3.6344856e-14 0)
(0.039968046 9.0016795e-14 0)
(0.039968046 4.0963831e-14 0)
(0.039968046 9.2088026e-14 0)
(0.039968046 3.5772687e-14 0)
(0.039968046 8.4175137e-14 0)
(0.039968046 2.4819429e-14 0)
(0.039968046 6.8860034e-14 0)
(0.039968046 9.4038871e-15 0)
(0.039968046 5.8726499e-14 0)
(0.039968046 9.3539832e-15 0)
(0.039968046 5.6958883e-14 0)
(0.039968046 3.1204529e-15 0)
(0.039968046 5.5390996e-14 0)
(0.039968046 3.0008461e-14 0)
(0.039968046 1.0079801e-13 0)
(0.039968046 4.5338236e-14 0)
(0.039968046 7.9986784e-15 0)
(0.039968046 -1.2568156e-13 0)
(0.039968046 -1.1005795e-13 0)
(0.039968046 -8.4834234e-14 0)
(0.039968046 3.488817e-14 0)
(0.039968046 3.7868152e-14 0)
(0.039968046 3.3208607e-15 0)
(0.039968046 -1.266632e-13 0)
(0.039968046 -2.0787893e-13 0)
(0.039968046 -2.8018233e-13 0)
(0.039968046 -2.7459597e-13 0)
(0.039968046 -2.5286221e-13 0)
(0.039968046 -2.0363799e-13 0)
(0.039968046 -1.6900746e-13 0)
(0.039968046 -1.5557038e-13 0)
(0.039968046 -1.3551033e-13 0)
(0.039968046 -1.4607881e-13 0)
(0.039968046 -1.3162542e-13 0)
(0.039968046 -1.5471855e-13 0)
(0.039968046 -1.3712022e-13 0)
(0.039968046 -1.6522714e-13 0)
(0.039968046 -1.4074859e-13 0)
(0.039968046 -1.726643e-13 0)
(0.039968046 -1.4339852e-13 0)
(0.039968046 -1.8235079e-13 0)
(0.039968046 -1.4956867e-13 0)
(0.039968046 -1.9538502e-13 0)
(0.039968046 -1.5087536e-13 0)
(0.039968046 -1.9305312e-13 0)
(0.039968046 -1.3029621e-13 0)
(0.039968046 -1.7331789e-13 0)
(0.039968046 -1.0643441e-13 0)
(0.039968046 -1.5316833e-13 0)
(0.039968046 -8.330776e-14 0)
(0.039968046 -1.358088e-13 0)
(0.039968046 -7.1163733e-14 0)
(0.039968046 -1.3075806e-13 0)
(0.039968046 -6.8537814e-14 0)
(0.039968046 -1.256395e-13 0)
(0.039968046 -6.1932621e-14 0)
(0.039968046 -1.1209724e-13 0)
(0.039968046 -5.5753986e-14 0)
(0.039968046 -1.0512317e-13 0)
(0.039968046 -5.7012041e-14 0)
(0.039968046 -7.9624609e-14 0)
(0.039968046 -2.3508905e-14 0)
(0.039968046 -1.7546753e-14 0)
(0.039968046 1.2787925e-15 0)
(0.039968046 -2.0286605e-14 0)
(0.039968046 -5.2294062e-14 0)
(0.039968046 -1.5587583e-14 0)
(0.039968046 5.8106584e-14 0)
(0.039968046 1.8605787e-13 0)
(0.039968046 2.3076885e-13 0)
(0.039968046 2.5351433e-13 0)
(0.039968046 1.663952e-13 0)
(0.039968046 1.2247182e-13 0)
(0.039968046 8.1261185e-14 0)
(0.039968046 1.1522555e-13 0)
(0.039968046 1.1941735e-13 0)
(0.039968046 1.1281762e-13 0)
(0.039968046 2.4662864e-14 0)
(0.039968046 -9.7581492e-14 0)
(0.039968046 -2.2575535e-13 0)
(0.039968046 -2.9375633e-13 0)
(0.039968046 -2.8999586e-13 0)
(0.039968046 -2.2669686e-13 0)
(0.039968046 -1.2857805e-13 0)
(0.039968046 -4.5552682e-14 0)
(0.039968046 5.2044312e-14 0)
(0.039968046 6.2458547e-14 0)
(0.039968046 9.5941943e-14 0)
(0.039968046 5.2319987e-14 0)
(0.039968046 9.5923775e-14 0)
(0.039968046 6.594404e-14 0)
(0.039968046 1.2586988e-13 0)
(0.039968046 1.0829282e-13 0)
(0.039968046 1.9171667e-13 0)
(0.039968046 1.8712983e-13 0)
(0.039968046 2.0859613e-13 0)
(0.039968046 8.408658e-14 0)
(0.039968046 -1.4689368e-14 0)
(0.039968046 -1.1621863e-13 0)
(0.039968046 -9.997554e-14 0)
(0.039968046 -5.8736494e-14 0)
(0.039968046 7.6451446e-16 0)
(0.039968046 -2.8260155e-14 0)
(0.039968046 -3.1403828e-14 0)
(0.039968046 -1.9699584e-14 0)
(0.039968046 8.2180118e-14 0)
(0.039968046 1.7309648e-13 0)
(0.039968046 2.5846208e-13 0)
(0.039968046 2.4499511e-13 0)
(0.039968046 1.9182509e-13 0)
(0.039968046 1.4831618e-13 0)
(0.039968046 1.3888593e-13 0)
(0.039968046 1.8744573e-13 0)
(0.039968046 1.9556671e-13 0)
(0.039968046 1.6577097e-13 0)
(0.039968046 3.9639037e-14 0)
(0.039968046 -6.883415e-14 0)
(0.039968046 -1.816693e-13 0)
(0.039968046 -1.6926281e-13 0)
(0.039968046 -1.4985714e-13 0)
(0.039968046 -7.2175327e-14 0)
(0.039968046 -7.3824387e-14 0)
(0.039968046 -4.8108088e-14 0)
(0.039968046 -8.5386943e-14 0)
(0.039968046 -7.600038e-14 0)
(0.039968046 -9.9775199e-14 0)
(0.039968046 -7.4230993e-14 0)
(0.039968046 -9.3502618e-14 0)
(0.039968046 -9.6070684e-14 0)
(0.039968046 -1.4055354e-13 0)
(0.039968046 -1.1383061e-13 0)
(0.039968046 -6.2237348e-14 0)
(0.039968046 6.0993532e-14 0)
(0.039968046 1.4325495e-13 0)
(0.039968046 2.117694e-13 0)
(0.039968046 2.119953e-13 0)
(0.039968046 1.8005225e-13 0)
(0.039968046 1.0981652e-13 0)
(0.039968046 1.1972809e-14 0)
(0.039968046 -1.1022155e-13 0)
(0.039968046 -1.8174644e-13 0)
(0.039968046 -2.1789431e-13 0)
(0.039968046 -1.5752135e-13 0)
(0.039968046 -1.1589166e-13 0)
(0.039968046 -7.3230861e-14 0)
(0.039968046 -7.9330801e-14 0)
(0.039968046 -7.7515951e-14 0)
(0.039968046 -1.0018509e-13 0)
(0.039968046 -9.9960283e-14 0)
(0.039968046 -1.1586585e-13 0)
(0.039968046 -1.0195561e-13 0)
(0.039968046 -1.0052707e-13 0)
(0.039968046 -8.4037193e-14 0)
(0.039968046 -8.3929045e-14 0)
(0.039968046 -7.8509392e-14 0)
(0.039968046 -8.9472106e-14 0)
(0.039968046 -8.1083332e-14 0)
(0.039968046 -6.9560616e-14 0)
(0.039968046 -5.7372612e-14 0)
(0.039968046 -1.0932106e-13 0)
(0.039968046 -1.6468936e-13 0)
(0.039968046 -1.1488491e-13 0)
(0.039968046 8.4238876e-14 0)
(0.039968046 1.148557e-13 0)
(0.36732384 0.1406283 0)
(0.29754389 0.025079382 0)
(0.1860793 0.0083694578 0)
(0.16132807 0.0041218671 0)
(0.13901859 0.0019375705 0)
(0.13040448 0.0011770145 0)
(0.12396461 0.00061112242 0)
(0.12095998 0.00037191695 0)
(0.1189454 0.00019726764 0)
(0.11794826 0.00011564561 0)
(0.11733081 6.0265739e-05 0)
(0.11702581 3.3421351e-05 0)
(0.11685066 1.651646e-05 0)
(0.11676842 8.3961504e-06 0)
(0.1167257 3.6652769e-06 0)
(0.11670834 1.5217167e-06 0)
(0.1167012 3.995914e-07 0)
(0.11669986 -2.8253119e-08 0)
(0.1167004 -1.9929504e-07 0)
(0.11670175 -2.1612871e-07 0)
(0.11670304 -1.9051562e-07 0)
(0.11670415 -1.4616627e-07 0)
(0.11670497 -1.0646907e-07 0)
(0.11670557 -7.3335036e-08 0)
(0.11670597 -4.9151525e-08 0)
(0.11670624 -3.1884176e-08 0)
(0.11670642 -2.0290065e-08 0)
(0.11670653 -1.261347e-08 0)
(0.11670659 -7.7107695e-09 0)
(0.11670664 -4.616319e-09 0)
(0.11670666 -2.7154182e-09 0)
(0.11670667 -1.5644863e-09 0)
(0.11670668 -8.8474686e-10 0)
(0.11670669 -4.8826799e-10 0)
(0.11670669 -2.6193124e-10 0)
(0.11670669 -1.3476356e-10 0)
(0.11670669 -6.6164923e-11 0)
(0.11670669 -3.0470985e-11 0)
(0.11670669 -1.3204355e-11 0)
(0.11670669 -4.7818372e-12 0)
(0.11670669 -6.8307661e-13 0)
(0.11670669 1.4766049e-12 0)
(0.11670669 2.6955161e-12 0)
(0.11670669 2.9002093e-12 0)
(0.11670669 1.9602565e-12 0)
(0.11670669 6.8872168e-13 0)
(0.11670669 5.0340618e-14 0)
(0.11670669 1.725351e-16 0)
(0.11670669 3.4766122e-13 0)
(0.11670669 2.0310003e-13 0)
(0.11670669 3.5635079e-13 0)
(0.11670669 3.0009788e-13 0)
(0.11670669 6.1947557e-13 0)
(0.11670669 6.0156669e-13 0)
(0.11670669 7.8100263e-13 0)
(0.11670669 5.8829255e-13 0)
(0.11670669 6.3844679e-13 0)
(0.11670669 5.4916991e-13 0)
(0.11670669 8.9715681e-13 0)
(0.11670669 9.0807685e-13 0)
(0.11670669 1.0470751e-12 0)
(0.11670669 6.6786237e-13 0)
(0.11670669 5.591971e-13 0)
(0.11670669 1.7715291e-13 0)
(0.11670669 3.3419121e-13 0)
(0.11670669 1.1932446e-13 0)
(0.11670669 2.358734e-13 0)
(0.11670669 2.2194678e-14 0)
(0.11670669 6.008317e-14 0)
(0.11670669 -1.0121725e-13 0)
(0.11670669 5.7815168e-14 0)
(0.11670669 -8.7607879e-14 0)
(0.11670669 -3.0188402e-14 0)
(0.11670669 -2.03784e-13 0)
(0.11670669 -2.0216274e-13 0)
(0.11670669 -3.1521455e-13 0)
(0.11670669 -3.1720321e-13 0)
(0.11670669 -4.0706958e-13 0)
(0.11670669 -4.4609051e-13 0)
(0.11670669 -4.7625101e-13 0)
(0.11670669 -4.9433929e-13 0)
(0.11670669 -4.4573229e-13 0)
(0.11670669 -4.7563522e-13 0)
(0.11670669 -4.0351432e-13 0)
(0.11670669 -4.8454279e-13 0)
(0.11670669 -3.9470927e-13 0)
(0.11670669 -4.6630905e-13 0)
(0.11670669 -2.4776418e-13 0)
(0.11670669 -2.5749943e-13 0)
(0.11670669 -6.8608896e-14 0)
(0.11670669 -4.1976351e-13 0)
(0.11670669 -5.79612e-13 0)
(0.11670669 -1.0514256e-12 0)
(0.11670669 -9.3979497e-13 0)
(0.11670669 -8.8608315e-13 0)
(0.11670669 -3.5838417e-13 0)
(0.11670669 -2.2324015e-13 0)
(0.11670669 2.4201219e-14 0)
(0.11670669 -3.0527478e-13 0)
(0.11670669 -3.262811e-13 0)
(0.11670669 -3.5652792e-13 0)
(0.11670669 1.9048985e-13 0)
(0.11670669 5.0866751e-13 0)
(0.11670669 7.5259117e-13 0)
(0.11670669 1.7324217e-13 0)
(0.11670669 -4.480597e-13 0)
(0.11670669 -1.1620839e-12 0)
(0.11670669 -1.2731509e-12 0)
(0.11670669 -1.0778095e-12 0)
(0.11670669 -4.4368069e-13 0)
(0.11670669 4.5321365e-14 0)
(0.11670669 4.5057028e-13 0)
(0.11670669 4.6368954e-13 0)
(0.11670669 3.5179327e-13 0)
(0.11670669 1.6891873e-13 0)
(0.11670669 2.3043988e-14 0)
(0.11670669 6.4263124e-14 0)
(0.11670669 5.5859662e-14 0)
(0.11670669 1.7586947e-13 0)
(0.11670669 1.2735894e-13 0)
(0.11670669 1.5931786e-13 0)
(0.11670669 2.3981603e-14 0)
(0.11670669 4.0584974e-14 0)
(0.11670669 -9.0877464e-14 0)
(0.11670669 -8.431036e-14 0)
(0.11670669 -2.3787973e-13 0)
(0.11670669 -1.1834468e-13 0)
(0.11670669 -1.1287638e-14 0)
(0.11670669 4.4724888e-13 0)
(0.11670669 6.6875156e-13 0)
(0.11670669 8.6947429e-13 0)
(0.11670669 6.5564377e-13 0)
(0.11670669 5.1163766e-13 0)
(0.11670669 2.1502288e-13 0)
(0.11670669 2.6004801e-13 0)
(0.11670669 1.2975945e-13 0)
(0.11670669 2.7159027e-13 0)
(0.11670669 1.5416213e-13 0)
(0.11670669 2.8205363e-13 0)
(0.11670669 1.4419015e-13 0)
(0.11670669 2.6122824e-13 0)
(0.11670669 1.174224e-13 0)
(0.11670669 2.1861881e-13 0)
(0.11670669 7.488562e-14 0)
(0.11670669 1.9071817e-13 0)
(0.11670669 7.7628807e-14 0)
(0.11670669 1.8987002e-13 0)
(0.11670669 6.3439241e-14 0)
(0.11670669 1.8395895e-13 0)
(0.11670669 1.4516113e-13 0)
(0.11670669 3.3806839e-13 0)
(0.11670669 2.1854942e-13 0)
(0.11670669 6.8599688e-14 0)
(0.11670669 -3.1548842e-13 0)
(0.11670669 -3.2780359e-13 0)
(0.11670669 -2.3434263e-13 0)
(0.11670669 1.3685278e-13 0)
(0.11670669 1.8600002e-13 0)
(0.11670669 6.4325723e-14 0)
(0.11670669 -3.1635993e-13 0)
(0.11670669 -5.9691575e-13 0)
(0.11670669 -8.122189e-13 0)
(0.11670669 -8.1138157e-13 0)
(0.11670669 -7.4326203e-13 0)
(0.11670669 -6.0174372e-13 0)
(0.11670669 -5.0578864e-13 0)
(0.11670669 -4.5664288e-13 0)
(0.11670669 -4.0588026e-13 0)
(0.11670669 -4.2559555e-13 0)
(0.11670669 -3.9593883e-13 0)
(0.11670669 -4.513953e-13 0)
(0.11670669 -4.163257e-13 0)
(0.11670669 -4.8369627e-13 0)
(0.11670669 -4.3011694e-13 0)
(0.11670669 -5.0415148e-13 0)
(0.11670669 -4.3681612e-13 0)
(0.11670669 -5.2822351e-13 0)
(0.11670669 -4.4996373e-13 0)
(0.11670669 -5.5832435e-13 0)
(0.11670669 -4.5304735e-13 0)
(0.11670669 -5.4960226e-13 0)
(0.11670669 -4.0065292e-13 0)
(0.11670669 -4.9155729e-13 0)
(0.11670669 -3.3788539e-13 0)
(0.11670669 -4.3876542e-13 0)
(0.11670669 -2.7900577e-13 0)
(0.11670669 -3.9121097e-13 0)
(0.11670669 -2.4763156e-13 0)
(0.11670669 -3.8559696e-13 0)
(0.11670669 -2.4985813e-13 0)
(0.11670669 -3.8407093e-13 0)
(0.11670669 -2.4161236e-13 0)
(0.11670669 -3.6511769e-13 0)
(0.11670669 -2.4104159e-13 0)
(0.11670669 -3.720863e-13 0)
(0.11670669 -2.7223156e-13 0)
(0.11670669 -3.3030617e-13 0)
(0.11670669 -1.9265184e-13 0)
(0.11670669 -1.6936292e-13 0)
(0.11670669 -1.1150812e-13 0)
(0.11670669 -1.7440994e-13 0)
(0.11670669 -2.57258e-13 0)
(0.11670669 -1.5599586e-13 0)
(0.11670669 1.0824734e-13 0)
(0.11670669 5.0948328e-13 0)
(0.11670669 7.0799724e-13 0)
(0.11670669 7.7371676e-13 0)
(0.11670669 5.3547488e-13 0)
(0.11670669 3.8651888e-13 0)
(0.11670669 2.7419768e-13 0)
(0.11670669 3.7994281e-13 0)
(0.11670669 4.1278813e-13 0)
(0.11670669 4.0547973e-13 0)
(0.11670669 1.4493967e-13 0)
(0.11670669 -2.3442255e-13 0)
(0.11670669 -6.3630388e-13 0)
(0.11670669 -8.5655651e-13 0)
(0.11670669 -8.4121977e-13 0)
(0.11670669 -6.5373356e-13 0)
(0.11670669 -3.4481974e-13 0)
(0.11670669 -8.1399879e-14 0)
(0.11670669 2.2008505e-13 0)
(0.11670669 2.8374332e-13 0)
(0.11670669 3.5184237e-13 0)
(0.11670669 2.1230309e-13 0)
(0.11670669 2.9757286e-13 0)
(0.11670669 2.2145825e-13 0)
(0.11670669 3.6116505e-13 0)
(0.11670669 3.2145346e-13 0)
(0.11670669 5.4356018e-13 0)
(0.11670669 5.5922995e-13 0)
(0.11670669 6.1515888e-13 0)
(0.11670669 2.4238811e-13 0)
(0.11670669 -6.8569133e-14 0)
(0.11670669 -4.0588081e-13 0)
(0.11670669 -3.7200855e-13 0)
(0.11670669 -2.2027031e-13 0)
(0.11670669 -5.0221769e-14 0)
(0.11670669 -1.2166559e-13 0)
(0.11670669 -1.6857838e-13 0)
(0.11670669 -1.2455875e-13 0)
(0.11670669 1.5649552e-13 0)
(0.11670669 4.7630381e-13 0)
(0.11670669 7.3344735e-13 0)
(0.11670669 7.1004056e-13 0)
(0.11670669 5.4380514e-13 0)
(0.11670669 3.8915395e-13 0)
(0.11670669 3.6223889e-13 0)
(0.11670669 5.0920193e-13 0)
(0.11670669 5.6319289e-13 0)
(0.11670669 4.9043223e-13 0)
(0.11670669 1.3718983e-13 0)
(0.11670669 -2.1336676e-13 0)
(0.11670669 -5.5287682e-13 0)
(0.11670669 -5.3663581e-13 0)
(0.11670669 -4.5563042e-13 0)
(0.11670669 -2.3363306e-13 0)
(0.11670669 -2.1117292e-13 0)
(0.11670669 -1.5905799e-13 0)
(0.11670669 -2.5127931e-13 0)
(0.11670669 -2.5173095e-13 0)
(0.11670669 -3.0880291e-13 0)
(0.11670669 -2.4907529e-13 0)
(0.11670669 -2.9016234e-13 0)
(0.11670669 -3.1740908e-13 0)
(0.11670669 -4.446697e-13 0)
(0.11670669 -3.9401528e-13 0)
(0.11670669 -2.2457243e-13 0)
(0.11670669 1.4669628e-13 0)
(0.11670669 4.2352061e-13 0)
(0.11670669 6.4452335e-13 0)
(0.11670669 6.5188931e-13 0)
(0.11670669 5.7191142e-13 0)
(0.11670669 3.6874463e-13 0)
(0.11670669 7.1442352e-14 0)
(0.11670669 -2.992048e-13 0)
(0.11670669 -5.5866635e-13 0)
(0.11670669 -6.6751615e-13 0)
(0.11670669 -4.9157859e-13 0)
(0.11670669 -3.5664574e-13 0)
(0.11670669 -2.2352548e-13 0)
(0.11670669 -2.4238341e-13 0)
(0.11670669 -2.3826077e-13 0)
(0.11670669 -3.0801487e-13 0)
(0.11670669 -3.1219234e-13 0)
(0.11670669 -3.5508162e-13 0)
(0.11670669 -3.1683954e-13 0)
(0.11670669 -3.1677724e-13 0)
(0.11670669 -2.6437013e-13 0)
(0.11670669 -2.672648e-13 0)
(0.11670669 -2.481078e-13 0)
(0.11670669 -2.8573909e-13 0)
(0.11670669 -2.6282841e-13 0)
(0.11670669 -2.3099766e-13 0)
(0.11670669 -1.8124903e-13 0)
(0.11670669 -3.3045439e-13 0)
(0.11670669 -5.2939451e-13 0)
(0.11670669 -4.1798512e-13 0)
(0.11670669 2.2211774e-13 0)
(0.11670669 3.9782448e-13 0)
(0.50390834 0.19019022 0)
(0.4384704 0.050431502 0)
(0.29767008 0.022055306 0)
(0.25944374 0.010780087 0)
(0.22598939 0.0055621255 0)
(0.21213187 0.0032307864 0)
(0.20205719 0.0017732814 0)
(0.19716897 0.0010457342 0)
(0.19394744 0.00057679485 0)
(0.19230772 0.00033133693 0)
(0.19130242 0.00017833408 0)
(0.19079327 9.7731876e-05 0)
(0.19050201 4.9927635e-05 0)
(0.1903612 2.5329925e-05 0)
(0.19028763 1.1621981e-05 0)
(0.19025609 4.9696224e-06 0)
(0.1902425 1.5963872e-06 0)
(0.19023894 1.7316258e-07 0)
(0.19023899 -4.0016751e-07 0)
(0.19024063 -5.2279419e-07 0)
(0.19024241 -4.851761e-07 0)
(0.19024402 -3.850046e-07 0)
(0.19024524 -2.8494367e-07 0)
(0.19024615 -1.9928889e-07 0)
(0.19024677 -1.3479384e-07 0)
(0.19024719 -8.830358e-08 0)
(0.19024746 -5.6575702e-08 0)
(0.19024763 -3.5432032e-08 0)
(0.19024774 -2.1787887e-08 0)
(0.1902478 -1.3135222e-08 0)
(0.19024784 -7.7779916e-09 0)
(0.19024787 -4.5160561e-09 0)
(0.19024788 -2.5723969e-09 0)
(0.19024789 -1.4321894e-09 0)
(0.19024789 -7.7674059e-10 0)
(0.19024789 -4.0679704e-10 0)
(0.1902479 -2.0428235e-10 0)
(0.1902479 -9.6890247e-11 0)
(0.1902479 -4.2713253e-11 0)
(0.1902479 -1.600364e-11 0)
(0.1902479 -3.2828047e-12 0)
(0.1902479 2.6231571e-12 0)
(0.1902479 5.2396668e-12 0)
(0.1902479 5.4962209e-12 0)
(0.1902479 3.9073381e-12 0)
(0.1902479 1.880218e-12 0)
(0.1902479 8.3949354e-13 0)
(0.1902479 6.4097753e-13 0)
(0.1902479 1.0146132e-12 0)
(0.1902479 7.0396899e-13 0)
(0.1902479 8.3058231e-13 0)
(0.1902479 6.8661129e-13 0)
(0.1902479 1.0791913e-12 0)
(0.1902479 1.0402834e-12 0)
(0.1902479 1.2703957e-12 0)
(0.1902479 1.0177682e-12 0)
(0.1902479 1.0842111e-12 0)
(0.1902479 9.2526944e-13 0)
(0.1902479 1.3503895e-12 0)
(0.1902479 1.293165e-12 0)
(0.1902479 1.4337301e-12 0)
(0.1902479 9.1118402e-13 0)
(0.1902479 7.4442818e-13 0)
(0.1902479 2.3470799e-13 0)
(0.1902479 4.3105807e-13 0)
(0.1902479 1.5534531e-13 0)
(0.1902479 2.9006475e-13 0)
(0.1902479 -6.7595229e-16 0)
(0.1902479 2.4874615e-14 0)
(0.1902479 -2.0947988e-13 0)
(0.1902479 -2.1953567e-14 0)
(0.1902479 -2.338017e-13 0)
(0.1902479 -1.6385866e-13 0)
(0.1902479 -4.0332653e-13 0)
(0.1902479 -4.0047423e-13 0)
(0.1902479 -5.5848649e-13 0)
(0.1902479 -5.5317589e-13 0)
(0.1902479 -6.8314023e-13 0)
(0.1902479 -7.2857193e-13 0)
(0.1902479 -7.8803959e-13 0)
(0.1902479 -8.0684614e-13 0)
(0.1902479 -7.6246662e-13 0)
(0.1902479 -7.9289217e-13 0)
(0.1902479 -7.1660633e-13 0)
(0.1902479 -8.1008658e-13 0)
(0.1902479 -7.0730462e-13 0)
(0.1902479 -7.8071471e-13 0)
(0.1902479 -5.0812292e-13 0)
(0.1902479 -5.0910759e-13 0)
(0.1902479 -2.9074435e-13 0)
(0.1902479 -7.5655105e-13 0)
(0.1902479 -9.8725812e-13 0)
(0.1902479 -1.5496074e-12 0)
(0.1902479 -1.3574266e-12 0)
(0.1902479 -1.1811885e-12 0)
(0.1902479 -4.5114484e-13 0)
(0.1902479 -2.1170645e-13 0)
(0.1902479 1.0411624e-13 0)
(0.1902479 -2.9482255e-13 0)
(0.1902479 -3.3735052e-13 0)
(0.1902479 -3.2932675e-13 0)
(0.1902479 3.6010249e-13 0)
(0.1902479 7.7237062e-13 0)
(0.1902479 9.7326636e-13 0)
(0.1902479 1.5529663e-13 0)
(0.1902479 -7.3029122e-13 0)
(0.1902479 -1.6524906e-12 0)
(0.1902479 -1.7996915e-12 0)
(0.1902479 -1.4682683e-12 0)
(0.1902479 -5.9354155e-13 0)
(0.1902479 1.2802655e-13 0)
(0.1902479 6.884311e-13 0)
(0.1902479 7.467562e-13 0)
(0.1902479 5.7678449e-13 0)
(0.1902479 3.7686476e-13 0)
(0.1902479 1.4125942e-13 0)
(0.1902479 2.2057276e-13 0)
(0.1902479 1.8092446e-13 0)
(0.1902479 3.6739389e-13 0)
(0.1902479 2.899025e-13 0)
(0.1902479 3.6031148e-13 0)
(0.1902479 1.6949029e-13 0)
(0.1902479 2.0200331e-13 0)
(0.1902479 1.0536817e-14 0)
(0.1902479 2.5021003e-14 0)
(0.1902479 -1.7900187e-13 0)
(0.1902479 1.872545e-15 0)
(0.1902479 1.5043214e-13 0)
(0.1902479 7.7015173e-13 0)
(0.1902479 1.0265805e-12 0)
(0.1902479 1.2408783e-12 0)
(0.1902479 8.9292241e-13 0)
(0.1902479 6.5332048e-13 0)
(0.1902479 2.2799277e-13 0)
(0.1902479 2.6267017e-13 0)
(0.1902479 7.6130965e-14 0)
(0.1902479 2.5363973e-13 0)
(0.1902479 9.8223915e-14 0)
(0.1902479 2.6131459e-13 0)
(0.1902479 8.2992356e-14 0)
(0.1902479 2.3315637e-13 0)
(0.1902479 4.7375651e-14 0)
(0.1902479 1.7570342e-13 0)
(0.1902479 -8.4880417e-15 0)
(0.1902479 1.4116004e-13 0)
(0.1902479 -1.677044e-15 0)
(0.1902479 1.4149096e-13 0)
(0.1902479 -1.8088355e-14 0)
(0.1902479 1.3990452e-13 0)
(0.1902479 9.7795609e-14 0)
(0.1902479 3.4464206e-13 0)
(0.1902479 1.8392825e-13 0)
(0.1902479 -2.6874585e-14 0)
(0.1902479 -5.1250968e-13 0)
(0.1902479 -4.9189555e-13 0)
(0.1902479 -3.2789031e-13 0)
(0.1902479 1.7466963e-13 0)
(0.1902479 2.3510932e-13 0)
(0.1902479 5.9114307e-14 0)
(0.1902479 -4.4005196e-13 0)
(0.1902479 -7.9716654e-13 0)
(0.1902479 -1.0569214e-12 0)
(0.1902479 -1.0337096e-12 0)
(0.1902479 -9.2573979e-13 0)
(0.1902479 -7.2157743e-13 0)
(0.1902479 -5.8416974e-13 0)
(0.1902479 -5.0711874e-13 0)
(0.1902479 -4.3741781e-13 0)
(0.1902479 -4.5817583e-13 0)
(0.1902479 -4.2205083e-13 0)
(0.1902479 -4.9259214e-13 0)
(0.1902479 -4.5246694e-13 0)
(0.1902479 -5.3923598e-13 0)
(0.1902479 -4.7560028e-13 0)
(0.1902479 -5.7041021e-13 0)
(0.1902479 -4.8769477e-13 0)
(0.1902479 -6.0335459e-13 0)
(0.1902479 -5.0453715e-13 0)
(0.1902479 -6.4067352e-13 0)
(0.1902479 -5.0597028e-13 0)
(0.1902479 -6.2482872e-13 0)
(0.1902479 -4.3442339e-13 0)
(0.1902479 -5.4572572e-13 0)
(0.1902479 -3.4893366e-13 0)
(0.1902479 -4.7203714e-13 0)
(0.1902479 -2.6647903e-13 0)
(0.1902479 -4.0338585e-13 0)
(0.1902479 -2.1814765e-13 0)
(0.1902479 -3.9267213e-13 0)
(0.1902479 -2.2169021e-13 0)
(0.1902479 -3.9916643e-13 0)
(0.1902479 -2.2581591e-13 0)
(0.1902479 -3.9972044e-13 0)
(0.1902479 -2.5385312e-13 0)
(0.1902479 -4.427404e-13 0)
(0.1902479 -3.2702949e-13 0)
(0.1902479 -4.1934796e-13 0)
(0.1902479 -2.4514796e-13 0)
(0.1902479 -2.2328896e-13 0)
(0.1902479 -1.3842116e-13 0)
(0.1902479 -2.1444754e-13 0)
(0.1902479 -2.8790296e-13 0)
(0.1902479 -1.2425576e-13 0)
(0.1902479 2.6813051e-13 0)
(0.1902479 7.9667226e-13 0)
(0.1902479 1.0435989e-12 0)
(0.1902479 1.0656274e-12 0)
(0.1902479 7.0790678e-13 0)
(0.1902479 4.6284243e-13 0)
(0.1902479 2.979409e-13 0)
(0.1902479 4.151831e-13 0)
(0.1902479 4.4897154e-13 0)
(0.1902479 4.1468845e-13 0)
(0.1902479 6.1000216e-14 0)
(0.1902479 -4.4385772e-13 0)
(0.1902479 -9.3677869e-13 0)
(0.1902479 -1.1686979e-12 0)
(0.1902479 -1.062477e-12 0)
(0.1902479 -7.5263325e-13 0)
(0.1902479 -2.8726371e-13 0)
(0.1902479 7.8692129e-14 0)
(0.1902479 4.6635072e-13 0)
(0.1902479 5.0148664e-13 0)
(0.1902479 5.3202846e-13 0)
(0.1902479 2.8557645e-13 0)
(0.1902479 3.4644542e-13 0)
(0.1902479 2.0170896e-13 0)
(0.1902479 3.563788e-13 0)
(0.1902479 2.9036956e-13 0)
(0.1902479 5.7331092e-13 0)
(0.1902479 5.8425061e-13 0)
(0.1902479 6.4112695e-13 0)
(0.1902479 1.3874482e-13 0)
(0.1902479 -2.5442763e-13 0)
(0.1902479 -6.5281003e-13 0)
(0.1902479 -5.4356793e-13 0)
(0.1902479 -2.8201741e-13 0)
(0.1902479 -2.1065656e-14 0)
(0.1902479 -8.3077e-14 0)
(0.1902479 -1.2375244e-13 0)
(0.1902479 -4.1988435e-14 0)
(0.1902479 3.2905689e-13 0)
(0.1902479 7.3569569e-13 0)
(0.1902479 1.0187389e-12 0)
(0.1902479 9.1746008e-13 0)
(0.1902479 6.4203395e-13 0)
(0.1902479 3.9897265e-13 0)
(0.1902479 3.4291729e-13 0)
(0.1902479 5.2287017e-13 0)
(0.1902479 5.8120537e-13 0)
(0.1902479 4.7003694e-13 0)
(0.1902479 3.5767916e-15 0)
(0.1902479 -4.4026887e-13 0)
(0.1902479 -8.3816568e-13 0)
(0.1902479 -7.4780629e-13 0)
(0.1902479 -5.7784737e-13 0)
(0.1902479 -2.405e-13 0)
(0.1902479 -1.775639e-13 0)
(0.1902479 -9.4384732e-14 0)
(0.1902479 -2.0671787e-13 0)
(0.1902479 -2.096362e-13 0)
(0.1902479 -2.8585132e-13 0)
(0.1902479 -2.1580673e-13 0)
(0.1902479 -2.7933167e-13 0)
(0.1902479 -3.2444236e-13 0)
(0.1902479 -4.8877796e-13 0)
(0.1902479 -4.0716181e-13 0)
(0.1902479 -1.6495668e-13 0)
(0.1902479 3.3119108e-13 0)
(0.1902479 6.7761922e-13 0)
(0.1902479 9.3176736e-13 0)
(0.1902479 8.8337085e-13 0)
(0.1902479 7.2756934e-13 0)
(0.1902479 4.0507144e-13 0)
(0.1902479 -2.478952e-14 0)
(0.1902479 -5.2609496e-13 0)
(0.1902479 -8.4280137e-13 0)
(0.1902479 -9.3171504e-13 0)
(0.1902479 -6.3365167e-13 0)
(0.1902479 -4.1354595e-13 0)
(0.1902479 -1.9830648e-13 0)
(0.1902479 -2.0605429e-13 0)
(0.1902479 -1.8913693e-13 0)
(0.1902479 -2.8437026e-13 0)
(0.1902479 -2.916106e-13 0)
(0.1902479 -3.5428205e-13 0)
(0.1902479 -3.0394259e-13 0)
(0.1902479 -3.0822711e-13 0)
(0.1902479 -2.383416e-13 0)
(0.1902479 -2.4640214e-13 0)
(0.1902479 -2.2117391e-13 0)
(0.1902479 -2.7360844e-13 0)
(0.1902479 -2.403015e-13 0)
(0.1902479 -2.0052119e-13 0)
(0.1902479 -1.4017169e-13 0)
(0.1902479 -3.4677046e-13 0)
(0.1902479 -5.9724797e-13 0)
(0.1902479 -4.2395884e-13 0)
(0.1902479 4.3101373e-13 0)
(0.1902479 5.9882121e-13 0)
(0.59346672 0.2146733 0)
(0.54593347 0.0759984 0)
(0.39702192 0.039312284 0)
(0.34953974 0.019720541 0)
(0.30792187 0.010726719 0)
(0.28963523 0.0061583628 0)
(0.27651264 0.0034761737 0)
(0.26994405 0.0020290977 0)
(0.26565503 0.0011409868 0)
(0.26342423 0.00065140611 0)
(0.26206335 0.00035633489 0)
(0.26136077 0.00019487672 0)
(0.26095907 0.00010129796 0)
(0.26076048 5.1595031e-05 0)
(0.260656 2.4318939e-05 0)
(0.26060945 1.0645827e-05 0)
(0.26058866 3.7615977e-06 0)
(0.26058217 7.120873e-07 0)
(0.26058122 -5.4245209e-07 0)
(0.26058278 -8.8415041e-07 0)
(0.2605848 -8.6454209e-07 0)
(0.26058673 -7.0556352e-07 0)
(0.26058825 -5.2976988e-07 0)
(0.26058939 -3.749019e-07 0)
(0.26059018 -2.5552813e-07 0)
(0.26059072 -1.6861482e-07 0)
(0.26059108 -1.0861566e-07 0)
(0.2605913 -6.8390403e-08 0)
(0.26059144 -4.224612e-08 0)
(0.26059153 -2.559498e-08 0)
(0.26059158 -1.5228687e-08 0)
(0.26059162 -8.88844e-09 0)
(0.26059163 -5.0887259e-09 0)
(0.26059165 -2.8500176e-09 0)
(0.26059165 -1.5570315e-09 0)
(0.26059165 -8.241599e-10 0)
(0.26059166 -4.194737e-10 0)
(0.26059166 -2.0229016e-10 0)
(0.26059166 -9.054097e-11 0)
(0.26059166 -3.4867826e-11 0)
(0.26059166 -8.3933458e-12 0)
(0.26059166 3.4748002e-12 0)
(0.26059166 8.0252647e-12 0)
(0.26059166 8.1661555e-12 0)
(0.26059166 5.9557254e-12 0)
(0.26059166 3.5367247e-12 0)
(0.26059166 2.4302117e-12 0)
(0.26059166 2.1798169e-12 0)
(0.26059166 2.460401e-12 0)
(0.26059166 1.9597916e-12 0)
(0.26059166 1.9316869e-12 0)
(0.26059166 1.6027051e-12 0)
(0.26059166 1.890782e-12 0)
(0.26059166 1.7279921e-12 0)
(0.26059166 1.8996862e-12 0)
(0.26059166 1.550843e-12 0)
(0.26059166 1.5869603e-12 0)
(0.26059166 1.3464185e-12 0)
(0.26059166 1.6333713e-12 0)
(0.26059166 1.3522311e-12 0)
(0.26059166 1.3326114e-12 0)
(0.26059166 7.4214096e-13 0)
(0.26059166 5.8919932e-13 0)
(0.26059166 5.4819288e-14 0)
(0.26059166 2.2842564e-13 0)
(0.26059166 -9.5763871e-14 0)
(0.26059166 -2.0701364e-14 0)
(0.26059166 -4.3812344e-13 0)
(0.26059166 -4.9907124e-13 0)
(0.26059166 -7.7597483e-13 0)
(0.26059166 -5.9392654e-13 0)
(0.26059166 -7.9396888e-13 0)
(0.26059166 -7.3028842e-13 0)
(0.26059166 -9.5563323e-13 0)
(0.26059166 -9.6039437e-13 0)
(0.26059166 -1.1056802e-12 0)
(0.26059166 -1.0993605e-12 0)
(0.26059166 -1.2052323e-12 0)
(0.26059166 -1.2562713e-12 0)
(0.26059166 -1.3095682e-12 0)
(0.26059166 -1.3652368e-12 0)
(0.26059166 -1.3250188e-12 0)
(0.26059166 -1.3906071e-12 0)
(0.26059166 -1.3000607e-12 0)
(0.26059166 -1.4224202e-12 0)
(0.26059166 -1.2785007e-12 0)
(0.26059166 -1.3660795e-12 0)
(0.26059166 -1.0619576e-12 0)
(0.26059166 -1.147012e-12 0)