/*--------------------------------*- C++ -*----------------------------------*\
| =========                 |                                                 |
| \\      /  F ield         | OpenFOAM: The Open Source CFD Toolbox           |
|  \\    /   O peration     | Version:  2206                                  |
|   \\  /    A nd           | Website:  www.openfoam.com                      |
|    \\/     M anipulation  |                                                 |
\*---------------------------------------------------------------------------*/
FoamFile
{
    version     2.0;
    format      ascii;
    arch        "LSB;label=32;scalar=64";
    class       surfaceScalarField;
    location    "29";
    object      phi;
}
// * * * * * * * * * * * * * * * * * * * * * * * * * * * * * * * * * * * * * //

dimensions      [0 3 -1 0 0 0 0];

oriented        oriented;

internalField   nonuniform List<scalar> 
29650
(
6.0867648e-05
0.00020579915
3.2718169e-05
2.8149477e-05
2.4599021e-05
8.1191547e-06
2.0417849e-05
4.1811847e-06
1.8552178e-05
1.8656837e-06
1.73737e-05
1.1784897e-06
1.6781661e-05
5.9204956e-07
1.6412315e-05
3.6935626e-07
1.6220821e-05
1.9150228e-07
1.6106686e-05
1.1414033e-07
1.6048258e-05
5.8430497e-08
1.6015474e-05
3.2784304e-08
1.5999542e-05
1.5931173e-08
1.5991376e-05
8.1639858e-09
1.5987889e-05
3.4853374e-09
1.598644e-05
1.4472724e-09
1.598609e-05
3.4887432e-10
1.5986138e-05
-4.8279774e-11
1.5986349e-05
-2.111688e-10
1.5986569e-05
-2.1978899e-10
1.5986762e-05
-1.9210902e-10
1.5986908e-05
-1.4597776e-10
1.5987014e-05
-1.0607691e-10
1.5987087e-05
-7.2789078e-11
1.5987136e-05
-4.8766885e-11
1.5987167e-05
-3.1585841e-11
1.5987187e-05
-2.0091623e-11
1.59872e-05
-1.2467757e-11
1.5987208e-05
-7.6142127e-12
1.5987212e-05
-4.5559567e-12
1.5987215e-05
-2.6850305e-12
1.5987216e-05
-1.5511215e-12
1.5987217e-05
-8.7995329e-13
1.5987218e-05
-4.8573648e-13
1.5987218e-05
-2.6020153e-13
1.5987218e-05
-1.3291778e-13
1.5987218e-05
-6.4487695e-14
1.5987218e-05
-2.80839e-14
1.5987218e-05
-1.0248533e-14
1.5987218e-05
-1.5832691e-15
1.5987218e-05
1.6798806e-15
1.5987218e-05
2.9222941e-15
1.5987218e-05
3.1294998e-15
1.5987218e-05
3.1022152e-15
1.5987218e-05
2.3523241e-15
1.5987218e-05
8.8504833e-16
1.5987218e-05
-3.6039146e-16
1.5987218e-05
-1.3704156e-15
1.5987218e-05
-1.0831049e-15
1.5987218e-05
-9.4024647e-16
1.5987218e-05
2.0515001e-16
1.5987218e-05
6.4448268e-16
1.5987218e-05
1.5273849e-15
1.5987218e-05
1.2645791e-15
1.5987218e-05
1.5135381e-15
1.5987218e-05
8.681962e-16
1.5987218e-05
9.476912e-16
1.5987218e-05
4.1762999e-16
1.5987218e-05
8.9281809e-16
1.5987218e-05
-4.0395266e-17
1.5987218e-05
-1.2480369e-17
1.5987218e-05
-7.8563078e-16
1.5987218e-05
4.3668705e-18
1.5987218e-05
6.5684017e-17
1.5987218e-05
1.1704876e-15
1.5987218e-05
8.2591059e-16
1.5987218e-05
7.9300039e-16
1.5987218e-05
-3.577423e-16
1.5987218e-05
-5.8639672e-16
1.5987218e-05
-9.7037537e-16
1.5987218e-05
8.6687314e-17
1.5987218e-05
2.759588e-16
1.5987218e-05
8.3569054e-16
1.5987218e-05
3.9500293e-16
1.5987218e-05
2.8880118e-16
1.5987218e-05
-3.0753649e-16
1.5987218e-05
-3.0669847e-16
1.5987218e-05
-5.0147616e-16
1.5987218e-05
-2.5119957e-16
1.5987218e-05
-2.5317114e-16
1.5987218e-05
-1.1557007e-16
1.5987218e-05
-1.8077354e-16
1.5987218e-05
-1.988456e-16
1.5987218e-05
-2.628031e-16
1.5987218e-05
-3.0573667e-16
1.5987218e-05
-2.0409307e-16
1.5987218e-05
-1.4791078e-16
1.5987218e-05
1.397312e-16
1.5987218e-05
1.6147318e-16
1.5987218e-05
4.0093934e-16
1.5987218e-05
1.9986128e-16
1.5987218e-05
2.846512e-16
1.5987218e-05
-6.7033335e-17
1.5987218e-05
8.4145944e-17
1.5987218e-05
-1.6237254e-16
1.5987218e-05
3.8856795e-17
1.5987218e-05
-2.4983063e-16
1.5987218e-05
-4.736619e-17
1.5987218e-05
-3.7022688e-17
1.5987218e-05
4.6531093e-16
1.5987218e-05
3.9700065e-16
1.5987218e-05
1.7063656e-16
1.5987218e-05
-8.8361181e-16
1.5987218e-05
-1.4144261e-15
1.5987218e-05
-1.2508605e-15
1.5987218e-05
9.4419213e-17
1.5987218e-05
9.5257857e-16
1.5987218e-05
1.4389438e-15
1.5987218e-05
4.911288e-16
1.5987218e-05
-2.2839966e-16
1.5987218e-05
-1.0642216e-15
1.5987218e-05
-1.1377065e-15
1.5987218e-05
-8.5185016e-16
1.5987218e-05
-3.507213e-16
1.5987218e-05
2.572434e-16
1.5987218e-05
3.957367e-16
1.5987218e-05
7.1851359e-16
1.5987218e-05
5.8224822e-16
1.5987218e-05
7.0131646e-16
1.5987218e-05
5.0152744e-16
1.5987218e-05
5.9238441e-16
1.5987218e-05
4.2033811e-16
1.5987218e-05
5.5572355e-16
1.5987218e-05
3.8824993e-16
1.5987218e-05
5.2963236e-16
1.5987218e-05
3.2018954e-16
1.5987218e-05
4.6450532e-16
1.5987218e-05
2.3987889e-16
1.5987218e-05
4.0942485e-16
1.5987218e-05
1.7740058e-16
1.5987218e-05
3.6774685e-16
1.5987218e-05
1.2406087e-16
1.5987218e-05
3.3617157e-16
1.5987218e-05
9.0087559e-17
1.5987218e-05
3.2156462e-16
1.5987218e-05
5.3758918e-17
1.5987218e-05
2.7847949e-16
1.5987218e-05
-2.5303779e-17
1.5987218e-05
1.8253688e-16
1.5987218e-05
-1.5615542e-16
1.5987218e-05
3.7043905e-17
1.5987218e-05
-2.9989417e-16
1.5987218e-05
-6.9893723e-17
1.5987218e-05
-3.5392881e-16
1.5987218e-05
-9.7201354e-17
1.5987218e-05
-4.0319091e-16
1.5987218e-05
-1.9474454e-16
1.5987218e-05
-4.649648e-16
1.5987218e-05
-1.6412382e-16
1.5987218e-05
-3.418232e-16
1.5987218e-05
-2.1520724e-16
1.5987218e-05
-6.7250863e-16
1.5987218e-05
-5.4320556e-16
1.5987218e-05
-5.3327695e-16
1.5987218e-05
2.488511e-16
1.5987218e-05
7.3952533e-16
1.5987218e-05
1.2918274e-15
1.5987218e-05
1.2127022e-15
1.5987218e-05
1.0475438e-15
1.5987218e-05
5.8417334e-16
1.5987218e-05
3.6032865e-16
1.5987218e-05
5.9935846e-17
1.5987218e-05
-4.953645e-17
1.5987218e-05
-1.2721995e-16
1.5987218e-05
-9.6323652e-17
1.5987218e-05
-8.7057178e-17
1.5987218e-05
-1.0379792e-16
1.5987218e-05
-8.7887576e-17
1.5987218e-05
-1.4241063e-16
1.5987218e-05
-9.4090667e-17
1.5987218e-05
-1.6268245e-16
1.5987218e-05
-7.9613008e-17
1.5987218e-05
-1.7031634e-16
1.5987218e-05
-6.1297705e-17
1.5987218e-05
-1.8454677e-16
1.5987218e-05
-5.2931294e-17
1.5987218e-05
-2.2298286e-16
1.5987218e-05
-7.6418549e-17
1.5987218e-05
-2.6906441e-16
1.5987218e-05
-9.4702132e-17
1.5987218e-05
-2.6448976e-16
1.5987218e-05
-7.4718766e-17
1.5987218e-05
-2.2841789e-16
1.5987218e-05
3.8356917e-17
1.5987218e-05
-5.8016566e-17
1.5987218e-05
2.5058974e-16
1.5987218e-05
1.3424008e-16
1.5987218e-05
4.3314528e-16
1.5987218e-05
3.2358018e-16
1.5987218e-05
5.7802636e-16
1.5987218e-05
3.987124e-16
1.5987218e-05
6.1666335e-16
1.5987218e-05
6.1513731e-16
1.5987218e-05
1.0101994e-15
1.5987218e-05
1.0242386e-15
1.5987218e-05
8.772886e-16
1.5987218e-05
2.6313014e-16
1.5987218e-05
-5.2402251e-16
1.5987218e-05
-9.3188932e-16
1.5987218e-05
-1.0674645e-15
1.5987218e-05
-5.6303897e-16
1.5987218e-05
-4.4376216e-16
1.5987218e-05
-2.4822736e-16
1.5987218e-05
-5.6419878e-16
1.5987218e-05
-1.6268148e-16
1.5987218e-05
9.6447243e-17
1.5987218e-05
9.1801444e-16
1.5987218e-05
1.0743523e-15
1.5987218e-05
1.2776095e-15
1.5987218e-05
8.6688347e-16
1.5987218e-05
7.2807418e-16
1.5987218e-05
4.3902011e-16
1.5987218e-05
4.6081891e-16
1.5987218e-05
3.2037023e-16
1.5987218e-05
3.0468476e-16
1.5987218e-05
2.0400644e-16
1.5987218e-05
3.3870355e-16
1.5987218e-05
5.3392078e-16
1.5987218e-05
6.1522899e-16
1.5987218e-05
3.4140056e-16
1.5987218e-05
-3.6177177e-16
1.5987218e-05
-9.3702447e-16
1.5987218e-05
-1.291966e-15
1.5987218e-05
-1.024513e-15
1.5987218e-05
-6.9904456e-16
1.5987218e-05
-2.4281494e-16
1.5987218e-05
-1.9031316e-16
1.5987218e-05
4.0525514e-17
1.5987218e-05
-2.03652e-16
1.5987218e-05
-2.6056602e-16
1.5987218e-05
-6.1141879e-16
1.5987218e-05
-3.9325379e-16
1.5987218e-05
-6.2025931e-17
1.5987218e-05
7.3941063e-16
1.5987218e-05
1.0473353e-15
1.5987218e-05
1.3526172e-15
1.5987218e-05
1.1846874e-15
1.5987218e-05
1.1031256e-15
1.5987218e-05
6.4652673e-16
1.5987218e-05
9.7158545e-17
1.5987218e-05
-5.6446653e-16
1.5987218e-05
-1.0388972e-15
1.5987218e-05
-1.0452039e-15
1.5987218e-05
-8.0348601e-16
1.5987218e-05
-5.2300612e-16
1.5987218e-05
-5.1273886e-16
1.5987218e-05
-4.8212174e-16
1.5987218e-05
-2.8982602e-16
1.5987218e-05
2.8072778e-16
1.5987218e-05
8.6142653e-16
1.5987218e-05
1.225996e-15
1.5987218e-05
1.1772047e-15
1.5987218e-05
9.2051908e-16
1.5987218e-05
5.671418e-16
1.5987218e-05
3.8369206e-16
1.5987218e-05
2.5544479e-16
1.5987218e-05
2.5324248e-16
1.5987218e-05
2.7019244e-16
1.5987218e-05
2.9599412e-16
1.5987218e-05
3.0065939e-16
1.5987218e-05
2.4126494e-16
1.5987218e-05
2.3100115e-16
1.5987218e-05
2.6844374e-16
1.5987218e-05
4.6532538e-16
1.5987218e-05
4.8978864e-16
1.5987218e-05
3.424607e-16
1.5987218e-05
-3.1686276e-16
1.5987218e-05
-8.8656378e-16
1.5987218e-05
-1.4182377e-15
1.5987218e-05
-1.323698e-15
1.5987218e-05
-1.1510469e-15
1.5987218e-05
-7.5525752e-16
1.5987218e-05
-7.7902554e-16
1.5987218e-05
-5.8080001e-16
1.5987218e-05
-4.1221824e-16
1.5987218e-05
2.3509286e-16
1.5987218e-05
7.5826896e-16
1.5987218e-05
1.3007666e-15
1.5987218e-05
1.258297e-15
1.5987218e-05
1.1157871e-15
1.5987218e-05
8.2772968e-16
1.5987218e-05
5.9796787e-16
1.5987218e-05
5.0532147e-16
1.5987218e-05
3.6868829e-16
1.5987218e-05
4.6596299e-16
1.5987218e-05
3.8658971e-16
1.5987218e-05
5.3171421e-16
1.5987218e-05
3.7920044e-16
1.5987218e-05
5.1056622e-16
1.5987218e-05
3.1383026e-16
1.5987218e-05
4.7125415e-16
1.5987218e-05
3.2003675e-16
1.5987218e-05
4.7678411e-16
1.5987218e-05
1.7749093e-16
1.5987218e-05
2.6926367e-16
1.5987218e-05
3.5119403e-16
1.5987218e-05
9.3378087e-16
1.5987218e-05
4.80475e-16
1.5987218e-05
-4.0287196e-16
-7.8551939e-16
0.00014027132
0.00033219462
9.2549243e-05
7.5871547e-05
7.0338072e-05
3.0330331e-05
5.9620314e-05
1.4898955e-05
5.4019643e-05
7.4663684e-06
5.0795344e-05
4.4028008e-06
4.901105e-05
2.3763548e-06
4.7964745e-05
1.415672e-06
4.7384384e-05
7.7187197e-07
4.7052234e-05
4.4629729e-07
4.6872682e-05
2.379848e-07
4.6774531e-05
1.309365e-07
4.6724187e-05
6.6273757e-08
4.6698685e-05
3.3663866e-08
4.6686924e-05
1.5243992e-08
4.6681893e-05
6.4776824e-09
4.6680252e-05
1.9886972e-09
4.6680058e-05
1.451161e-10
4.6680445e-05
-5.9791914e-10
4.6680961e-05
-7.3618575e-10
4.6681443e-05
-6.733021e-10
4.6681826e-05
-5.2910734e-10
4.668211e-05
-3.899794e-10
4.6682309e-05
-2.7169542e-10
4.6682444e-05
-1.8345445e-10
4.6682532e-05
-1.1994232e-10
4.6682589e-05
-7.6747511e-11
4.6682624e-05
-4.7976583e-11
4.6682646e-05
-2.946104e-11
4.6682659e-05
-1.7740751e-11
4.6682667e-05
-1.0506623e-11
4.6682672e-05
-6.1038049e-12
4.6682674e-05
-3.4795182e-12
4.6682676e-05
-1.9361922e-12
4.6682676e-05
-1.0481173e-12
4.6682677e-05
-5.4625028e-13
4.6682677e-05
-2.7220878e-13
4.6682677e-05
-1.2570114e-13
4.6682677e-05
-5.1734193e-14
4.6682677e-05
-1.545753e-14
4.6682677e-05
-1.428184e-16
4.6682677e-05
6.0479458e-15
4.6682677e-05
7.609318e-15
4.6682677e-05
7.8133675e-15
4.6682677e-05
5.9906886e-15
4.6682677e-05
2.7112865e-15
4.6682677e-05
-4.7075987e-16
4.6682677e-05
-2.6073607e-15
4.6682677e-05
-2.5928753e-15
4.6682677e-05
-2.1900984e-15
4.6682677e-05
-1.8199727e-16
4.6682677e-05
9.744302e-16
4.6682677e-05
2.4738415e-15
4.6682677e-05
2.2067877e-15
4.6682677e-05
2.4542939e-15
4.6682677e-05
1.5626921e-15
4.6682677e-05
1.6742362e-15
4.6682677e-05
1.1597134e-15
4.6682677e-05
1.6737362e-15
4.6682677e-05
3.048708e-16
4.6682677e-05
-3.9953149e-16
4.6682677e-05
-1.4926963e-15
4.6682677e-05
-4.3184634e-16
4.6682677e-05
2.3205647e-16
4.6682677e-05
2.1379069e-15
4.6682677e-05
1.8775225e-15
4.6682677e-05
1.5307695e-15
4.6682677e-05
-4.7407515e-16
4.6682677e-05
-1.1376691e-15
4.6682677e-05
-1.5522015e-15
4.6682677e-05
2.1286013e-16
4.6682677e-05
1.0098935e-15
4.6682677e-05
1.9193014e-15
4.6682677e-05
1.4323388e-15
4.6682677e-05
8.828432e-16
4.6682677e-05
-5.2368062e-17
4.6682677e-05
-3.783787e-16
4.6682677e-05
-5.3927464e-16
4.6682677e-05
-2.2885529e-16
4.6682677e-05
-2.3890881e-17
4.6682677e-05
7.76971e-17
4.6682677e-05
9.1155694e-17
4.6682677e-05
-1.0456637e-16
4.6682677e-05
-1.2824299e-16
4.6682677e-05
-3.5780162e-16
4.6682677e-05
-8.9852013e-17
4.6682677e-05
-4.6982661e-17
4.6682677e-05
5.9840597e-16
4.6682677e-05
6.2668718e-16
4.6682677e-05
1.1740781e-15
4.6682677e-05
7.1752698e-16
4.6682677e-05
9.2358783e-16
4.6682677e-05
1.2274264e-16
4.6682677e-05
4.2946726e-16
4.6682677e-05
-1.2664645e-16
4.6682677e-05
3.1388431e-16
4.6682677e-05
-3.8361611e-16
4.6682677e-05
6.5552444e-17
4.6682677e-05
-5.7493182e-17
4.6682677e-05
1.1210962e-15
4.6682677e-05
9.8215082e-16
4.6682677e-05
7.5214054e-16
4.6682677e-05
-1.7432162e-15
4.6682677e-05
-2.8871e-15
4.6682677e-05
-2.9554051e-15
4.6682677e-05
-2.0968208e-16
4.6682677e-05
1.8512003e-15
4.6682677e-05
2.995548e-15
4.6682677e-05
9.3441587e-16
4.6682677e-05
-6.9760303e-16
4.6682677e-05
-2.7143891e-15
4.6682677e-05
-3.0713739e-15
4.6682677e-05
-2.6025274e-15
4.6682677e-05
-1.2921453e-15
4.6682677e-05
-1.9289516e-16
4.6682677e-05
6.1388759e-16
4.6682677e-05
9.4994946e-16
4.6682677e-05
1.0330066e-15
4.6682677e-05
9.7080198e-16
4.6682677e-05
8.1058739e-16
4.6682677e-05
7.5447309e-16
4.6682677e-05
6.168849e-16
4.6682677e-05
6.9762133e-16
4.6682677e-05
5.6000197e-16
4.6682677e-05
6.6632302e-16
4.6682677e-05
4.327041e-16
4.6682677e-05
5.4858451e-16
4.6682677e-05
2.7756711e-16
4.6682677e-05
4.4831208e-16
4.6682677e-05
1.663219e-16
4.6682677e-05
3.8097547e-16
4.6682677e-05
7.9906449e-17
4.6682677e-05
3.3305123e-16
4.6682677e-05
3.3369824e-17
4.6682677e-05
3.3285957e-16
4.6682677e-05
-1.2058397e-17
4.6682677e-05
2.7408278e-16
4.6682677e-05
-1.4357871e-16
4.6682677e-05
1.0287527e-16
4.6682677e-05
-3.8594375e-16
4.6682677e-05
-1.7440615e-16
4.6682677e-05
-6.7159928e-16
4.6682677e-05
-3.7860594e-16
4.6682677e-05
-7.6356999e-16
4.6682677e-05
-3.9642736e-16
4.6682677e-05
-8.2693463e-16
4.6682677e-05
-5.6886077e-16
4.6682677e-05
-9.7115015e-16
4.6682677e-05
-4.9267754e-16
4.6682677e-05
-7.1378153e-16
4.6682677e-05
-5.3770232e-16
4.6682677e-05
-1.3285701e-15
4.6682677e-05
-1.2960426e-15
4.6682677e-05
-1.1878773e-15
4.6682677e-05
3.8148379e-16
4.6682677e-05
1.51867e-15
4.6682677e-05
2.8129555e-15
4.6682677e-05
2.8337619e-15
4.6682677e-05
2.4377686e-15
4.6682677e-05
1.6085472e-15
4.6682677e-05
1.103369e-15
4.6682677e-05
5.336742e-16
4.6682677e-05
2.8504426e-16
4.6682677e-05
1.0525976e-16
4.6682677e-05
9.4672011e-17
4.6682677e-05
1.2948856e-16
4.6682677e-05
5.7034128e-17
4.6682677e-05
8.046976e-17
4.6682677e-05
-3.3162893e-17
4.6682677e-05
3.9844429e-17
4.6682677e-05
-7.9095701e-17
4.6682677e-05
5.126577e-17
4.6682677e-05
-9.3306201e-17
4.6682677e-05
7.2123731e-17
4.6682677e-05
-1.1274669e-16
4.6682677e-05
7.7198612e-17
4.6682677e-05
-1.6504772e-16
4.6682677e-05
3.0869282e-17
4.6682677e-05
-2.3826123e-16
4.6682677e-05
-1.3946882e-17
4.6682677e-05
-2.4589196e-16
4.6682677e-05
-5.5834957e-18
4.6682677e-05
-2.3463702e-16
4.6682677e-05
1.5047076e-16
4.6682677e-05
5.1767131e-17
4.6682677e-05
5.4589335e-16
4.6682677e-05
4.1711137e-16
4.6682677e-05
8.8838759e-16
4.6682677e-05
7.531755e-16
4.6682677e-05
1.1354161e-15
4.6682677e-05
8.247712e-16
4.6682677e-05
1.0927456e-15
4.6682677e-05
1.1259657e-15
4.6682677e-05
1.7970342e-15
4.6682677e-05
1.9203827e-15
4.6682677e-05
1.6040298e-15
4.6682677e-05
1.8962538e-16
4.6682677e-05
-1.4717994e-15
4.6682677e-05
-2.5345001e-15
4.6682677e-05
-2.805604e-15
4.6682677e-05
-1.7552775e-15
4.6682677e-05
-1.2263055e-15
4.6682677e-05
-8.1367828e-16
4.6682677e-05
-1.250777e-15
4.6682677e-05
-6.1620628e-16
4.6682677e-05
1.8166582e-16
4.6682677e-05
1.8098776e-15
4.6682677e-05
2.500589e-15
4.6682677e-05
2.8944357e-15
4.6682677e-05
2.2051209e-15
4.6682677e-05
1.8755906e-15
4.6682677e-05
1.3154186e-15
4.6682677e-05
1.3317368e-15
4.6682677e-05
1.0624383e-15
4.6682677e-05
1.0308483e-15
4.6682677e-05
7.9171109e-16
4.6682677e-05
1.0512491e-15
4.6682677e-05
1.5032226e-15
4.6682677e-05
1.7817141e-15
4.6682677e-05
1.2821171e-15
4.6682677e-05
-1.3797394e-16
4.6682677e-05
-1.4480541e-15
4.6682677e-05
-2.3113375e-15
4.6682677e-05
-1.9276326e-15
4.6682677e-05
-1.3287879e-15
4.6682677e-05
-5.8093655e-16
4.6682677e-05
-4.4571171e-16
4.6682677e-05
-1.378931e-16
4.6682677e-05
-5.2620535e-16
4.6682677e-05
-8.0105973e-16
4.6682677e-05
-1.4974274e-15
4.6682677e-05
-1.2723699e-15
4.6682677e-05
-4.2617185e-16
4.6682677e-05
1.0715246e-15
4.6682677e-05
2.0471168e-15
4.6682677e-05
2.6244339e-15
4.6682677e-05
2.4423963e-15
4.6682677e-05
2.3309571e-15
4.6682677e-05
1.471443e-15
4.6682677e-05
3.7005267e-16
4.6682677e-05
-1.1365571e-15
4.6682677e-05
-2.1717924e-15
4.6682677e-05
-2.3682066e-15
4.6682677e-05
-1.8729941e-15
4.6682677e-05
-1.2932284e-15
4.6682677e-05
-1.2763656e-15
4.6682677e-05
-1.3174766e-15
4.6682677e-05
-9.7331945e-16
4.6682677e-05
2.3044337e-16
4.6682677e-05
1.5137751e-15
4.6682677e-05
2.4853745e-15
4.6682677e-05
2.5352828e-15
4.6682677e-05
2.0404469e-15
4.6682677e-05
1.382455e-15
4.6682677e-05
9.8796879e-16
4.6682677e-05
7.3307965e-16
4.6682677e-05
7.3985385e-16
4.6682677e-05
7.5828478e-16
4.6682677e-05
8.4700348e-16
4.6682677e-05
8.3721166e-16
4.6682677e-05
7.6374406e-16
4.6682677e-05
6.8245434e-16
4.6682677e-05
7.7699604e-16
4.6682677e-05
1.1637296e-15
4.6682677e-05
1.3683657e-15
4.6682677e-05
1.0253863e-15
4.6682677e-05
-2.2420335e-16
4.6682677e-05
-1.5957744e-15
4.6682677e-05
-2.741647e-15
4.6682677e-05
-2.7271666e-15
4.6682677e-05
-2.3739875e-15
4.6682677e-05
-1.635575e-15
4.6682677e-05
-1.7222203e-15
4.6682677e-05
-1.5266594e-15
4.6682677e-05
-1.2758934e-15
4.6682677e-05
-1.3384292e-16
4.6682677e-05
1.1671121e-15
4.6682677e-05
2.2629338e-15
4.6682677e-05
2.4188243e-15
4.6682677e-05
2.1599238e-15
4.6682677e-05
1.6178775e-15
4.6682677e-05
1.2431224e-15
4.6682677e-05
1.0004204e-15
4.6682677e-05
8.1581617e-16
4.6682677e-05
9.4545865e-16
4.6682677e-05
8.8340319e-16
4.6682677e-05
1.0886926e-15
4.6682677e-05
9.3474731e-16
4.6682677e-05
1.0706475e-15
4.6682677e-05
8.2710262e-16
4.6682677e-05
9.9486435e-16
4.6682677e-05
8.4922913e-16
4.6682677e-05
1.0516531e-15
4.6682677e-05
6.1730942e-16
4.6682677e-05
5.7168646e-16
4.6682677e-05
8.1692955e-16
4.6682677e-05
2.0513151e-15
4.6682677e-05
1.4868049e-15
4.6682677e-05
-6.5396953e-16
-1.7353046e-15
0.00019469214
0.00040416928
0.00014360962
0.00012695408
0.00011230147
6.1638478e-05
9.6619295e-05
3.0581137e-05
8.7762221e-05
1.6323442e-05
8.2755406e-05
9.4096141e-06
7.9871701e-05
5.2600573e-06
7.8206033e-05
3.0813374e-06
7.7256668e-05
1.7212362e-06
7.6718195e-05
9.8477075e-07
7.6420463e-05
5.3571782e-07
7.6258218e-05
2.9318209e-07
7.6172993e-05
1.5150013e-07
7.61296e-05
7.7057954e-08
7.6108851e-05
3.5993482e-08
7.6099695e-05
1.5633715e-08
7.6096324e-05
5.3597231e-09
7.6095587e-05
8.8190917e-10
7.6095937e-05
-9.4725127e-10
7.6096611e-05
-1.4109161e-09
7.609729e-05
-1.3527282e-09
7.6097854e-05
-1.0926431e-09
7.609828e-05
-8.1615292e-10
7.6098584e-05
-5.7521157e-10
7.6098791e-05
-3.9109628e-10
7.6098929e-05
-2.5749047e-10
7.6099018e-05
-1.6558953e-10
7.6099074e-05
-1.0407512e-10
7.6099108e-05
-6.4189137e-11
7.609913e-05
-3.8832302e-11
7.6099142e-05
-2.3084437e-11
7.609915e-05
-1.3465184e-11
7.6099154e-05
-7.7053862e-12
7.6099156e-05
-4.3104226e-12
7.6099157e-05
-2.3505254e-12
7.6099158e-05
-1.2403901e-12
7.6099158e-05
-6.2919104e-13
7.6099159e-05
-3.0048545e-13
7.6099159e-05
-1.3109555e-13
7.6099159e-05
-4.6939869e-14
7.6099159e-05
-9.0375951e-15
7.6099159e-05
6.751739e-15
7.6099159e-05
1.1647364e-14
7.6099159e-05
1.2079656e-14
7.6099159e-05
9.3955111e-15
7.6099159e-05
5.04217e-15
7.6099159e-05
1.3254825e-15
7.6099159e-05
-1.2100376e-15
7.6099159e-05
-9.8696491e-16
7.6099159e-05
-8.8466426e-16
7.6099159e-05
1.1587922e-15
7.6099159e-05
2.0846624e-15
7.6099159e-05
3.7979646e-15
7.6099159e-05
3.4482086e-15
7.6099159e-05
3.8477429e-15
7.6099159e-05
2.6720057e-15
7.6099159e-05
2.6691835e-15
7.6099159e-05
1.5720868e-15
7.6099159e-05
2.1275611e-15
7.6099159e-05
2.59253e-16
7.6099159e-05
-2.682356e-17
7.6099159e-05
-1.4513915e-15
7.6099159e-05
2.2621145e-17
7.6099159e-05
4.9540198e-16
7.6099159e-05
2.816713e-15
7.6099159e-05
2.4939546e-15
7.6099159e-05
2.4617633e-15
7.6099159e-05
3.3697851e-16
7.6099159e-05
-1.869491e-16
7.6099159e-05
-8.4577376e-16
7.6099159e-05
1.0841496e-15
7.6099159e-05
1.4182449e-15
7.6099159e-05
2.22922e-15
7.6099159e-05
1.271819e-15
7.6099159e-05
8.5283262e-16
7.6099159e-05
-2.8894027e-16
7.6099159e-05
-3.6084827e-16
7.6099159e-05
-6.9809786e-16
7.6099159e-05
-2.4157693e-16
7.6099159e-05
-1.8411349e-16
7.6099159e-05
7.9300892e-17
7.6099159e-05
1.7488916e-18
7.6099159e-05
-5.3684469e-17
7.6099159e-05
-1.5017237e-16
7.6099159e-05
-2.4301043e-16
7.6099159e-05
-2.3478126e-17
7.6099159e-05
8.6816293e-17
7.6099159e-05
6.3028006e-16
7.6099159e-05
6.1997396e-16
7.6099159e-05
1.0299656e-15
7.6099159e-05
5.4920216e-16
7.6099159e-05
6.5448939e-16
7.6099159e-05
-9.4231628e-17
7.6099159e-05
1.4125342e-16
7.6099159e-05
-4.0128034e-16
7.6099159e-05
-9.2357935e-17
7.6099159e-05
-7.3655783e-16
7.6099159e-05
-3.5357021e-16
7.6099159e-05
-3.4017031e-16
7.6099159e-05
6.170987e-16
7.6099159e-05
3.5303788e-16
7.6099159e-05
-2.431016e-16
7.6099159e-05
-2.4730884e-15
7.6099159e-05
-3.3249798e-15
7.6099159e-05
-2.7059916e-15
7.6099159e-05
8.9640448e-17
7.6099159e-05
1.7724045e-15
7.6099159e-05
2.3018053e-15
7.6099159e-05
-1.9510499e-17
7.6099159e-05
-1.6809818e-15
7.6099159e-05
-3.3993952e-15
7.6099159e-05
-3.3005303e-15
7.6099159e-05
-2.3453827e-15
7.6099159e-05
-9.5400323e-16
7.6099159e-05
5.0857366e-16
7.6099159e-05
1.0143839e-15
7.6099159e-05
1.6410917e-15
7.6099159e-05
1.4786895e-15
7.6099159e-05
1.6536528e-15
7.6099159e-05
1.3270835e-15
7.6099159e-05
1.4579101e-15
7.6099159e-05
1.1728002e-15
7.6099159e-05
1.4011491e-15
7.6099159e-05
1.1320144e-15
7.6099159e-05
1.3782457e-15
7.6099159e-05
1.0208184e-15
7.6099159e-05
1.2654192e-15
7.6099159e-05
8.6846009e-16
7.6099159e-05
1.1555188e-15
7.6099159e-05
7.4492969e-16
7.6099159e-05
1.0732524e-15
7.6099159e-05
6.4422875e-16
7.6099159e-05
1.0139727e-15
7.6099159e-05
5.865577e-16
7.6099159e-05
9.9440514e-16
7.6099159e-05
5.2419515e-16
7.6099159e-05
9.1307298e-16
7.6099159e-05
3.7531733e-16
7.6099159e-05
7.2347553e-16
7.6099159e-05
1.2349729e-16
7.6099159e-05
4.4815077e-16
7.6099159e-05
-1.5594839e-16
7.6099159e-05
2.4813631e-16
7.6099159e-05
-2.4948681e-16
7.6099159e-05
2.12127e-16
7.6099159e-05
-3.3163995e-16
7.6099159e-05
4.2732062e-17
7.6099159e-05
-4.2274761e-16
7.6099159e-05
1.5392087e-16
7.6099159e-05
-1.7316687e-16
7.6099159e-05
2.2846111e-17
7.6099159e-05
-8.2378073e-16
7.6099159e-05
-5.2472135e-16
7.6099159e-05
-3.307536e-16
7.6099159e-05
1.3193122e-15
7.6099159e-05
2.2786585e-15
7.6099159e-05
3.2313353e-15
7.6099159e-05
2.8813934e-15
7.6099159e-05
2.3102733e-15
7.6099159e-05
1.2505923e-15
7.6099159e-05
6.5024745e-16
7.6099159e-05
-6.8852913e-17
7.6099159e-05
-3.731298e-16
7.6099159e-05
-5.8732377e-16
7.6099159e-05
-5.6828011e-16
7.6099159e-05
-5.4138589e-16
7.6099159e-05
-5.7613667e-16
7.6099159e-05
-5.5048924e-16
7.6099159e-05
-6.6081905e-16
7.6099159e-05
-5.8825216e-16
7.6099159e-05
-7.2321047e-16
7.6099159e-05
-5.9278272e-16
7.6099159e-05
-7.6842239e-16
7.6099159e-05
-5.918776e-16
7.6099159e-05
-8.2305278e-16
7.6099159e-05
-6.1135689e-16
7.6099159e-05
-9.157731e-16
7.6099159e-05
-6.7409027e-16
7.6099159e-05
-1.0083831e-15
7.6099159e-05
-7.1366149e-16
7.6099159e-05
-9.9454897e-16
7.6099159e-05
-6.7132634e-16
7.6099159e-05
-9.1142375e-16
7.6099159e-05
-4.3737641e-16
7.6099159e-05
-5.6666518e-16
7.6099159e-05
-9.4305619e-18
7.6099159e-05
-1.7503202e-16
7.6099159e-05
3.7116278e-16
7.6099159e-05
1.8778566e-16
7.6099159e-05
6.0950815e-16
7.6099159e-05
2.2763927e-16
7.6099159e-05
5.4479072e-16
7.6099159e-05
5.0089938e-16
7.6099159e-05
1.1261886e-15
7.6099159e-05
1.0018784e-15
7.6099159e-05
5.149377e-16
7.6099159e-05
-8.8065551e-16
7.6099159e-05
-2.3726513e-15
7.6099159e-05
-2.9606574e-15
7.6099159e-05
-2.8575992e-15
7.6099159e-05
-1.5468478e-15
7.6099159e-05
-9.9295309e-16
7.6099159e-05
-3.9518562e-16
7.6099159e-05
-6.6192119e-16
7.6099159e-05
3.3222356e-16
7.6099159e-05
1.110966e-15
7.6099159e-05
2.6677935e-15
7.6099159e-05
2.8897067e-15
7.6099159e-05
2.9777844e-15
7.6099159e-05
1.9671435e-15
7.6099159e-05
1.4870012e-15
7.6099159e-05
8.0975e-16
7.6099159e-05
7.4041596e-16
7.6099159e-05
4.1395263e-16
7.6099159e-05
3.6696509e-16
7.6099159e-05
2.0532997e-16
7.6099159e-05
5.3207862e-16
7.6099159e-05
9.6307419e-16
7.6099159e-05
1.0868882e-15
7.6099159e-05
4.6485767e-16
7.6099159e-05
-9.6808849e-16
7.6099159e-05
-2.0342365e-15
7.6099159e-05
-2.5455409e-15
7.6099159e-05
-1.7892845e-15
7.6099159e-05
-9.773574e-16
7.6099159e-05
-2.9407343e-17
7.6099159e-05
1.2376067e-16
7.6099159e-05
4.9133724e-16
7.6099159e-05
-2.5724582e-17
7.6099159e-05
-2.4161143e-16
7.6099159e-05
-9.0171847e-16
7.6099159e-05
-4.496289e-16
7.6099159e-05
3.6671838e-16
7.6099159e-05
1.8612024e-15
7.6099159e-05
2.3907698e-15
7.6099159e-05
2.7279909e-15
7.6099159e-05
2.1633623e-15
7.6099159e-05
1.7979665e-15
7.6099159e-05
6.8647928e-16
7.6099159e-05
-5.325205e-16
7.6099159e-05
-1.8859864e-15
7.6099159e-05
-2.6654051e-15
7.6099159e-05
-2.4468785e-15
7.6099159e-05
-1.7411826e-15
7.6099159e-05
-1.0295773e-15
7.6099159e-05
-8.7876635e-16
7.6099159e-05
-6.9678026e-16
7.6099159e-05
-1.6642809e-16
7.6099159e-05
1.0699644e-15
7.6099159e-05
2.1989188e-15
7.6099159e-05
2.7645335e-15
7.6099159e-05
2.465459e-15
7.6099159e-05
1.7457794e-15
7.6099159e-05
9.5787391e-16
7.6099159e-05
5.2307218e-16
7.6099159e-05
2.4753812e-16
7.6099159e-05
2.3543916e-16
7.6099159e-05
2.6325966e-16
7.6099159e-05
3.3075027e-16
7.6099159e-05
3.3015427e-16
7.6099159e-05
2.4076756e-16
7.6099159e-05
2.1676648e-16
7.6099159e-05
3.3510658e-16
7.6099159e-05
7.0703793e-16
7.6099159e-05
7.3873784e-16
7.6099159e-05
2.9550072e-16
7.6099159e-05
-1.0592604e-15
7.6099159e-05
-2.2183802e-15
7.6099159e-05
-3.0656393e-15
7.6099159e-05
-2.6607826e-15
7.6099159e-05
-2.122026e-15
7.6099159e-05
-1.2878335e-15
7.6099159e-05
-1.3057427e-15
7.6099159e-05
-9.2347183e-16
7.6099159e-05
-5.1220723e-16
7.6099159e-05
7.6993831e-16
7.6099159e-05
1.8312423e-15
7.6099159e-05
2.6473427e-15
7.6099159e-05
2.3397003e-15
7.6099159e-05
1.8280282e-15
7.6099159e-05
1.0984602e-15
7.6099159e-05
5.8183448e-16
7.6099159e-05
3.3474638e-16
7.6099159e-05
9.2960101e-17
7.6099159e-05
2.6711902e-16
7.6099159e-05
1.5356864e-16
7.6099159e-05
4.1955982e-16
7.6099159e-05
1.8769736e-16
7.6099159e-05
4.2250104e-16
7.6099159e-05
1.1451864e-16
7.6099159e-05
4.0473872e-16
7.6099159e-05
1.853154e-16
7.6099159e-05
4.5689454e-16
7.6099159e-05
-7.0233336e-17
7.6099159e-05
8.8506549e-17
7.6099159e-05
3.5496725e-16
7.6099159e-05
1.4776726e-15
7.6099159e-05
5.0592174e-16
7.6099159e-05
-1.420752e-15
-1.9332525e-15
0.00023312986
0.00043770622
0.00018548527
0.00017459869
0.00015018421
9.6939542e-05
0.0001310242
4.974115e-05
0.00011965162
2.7696016e-05
0.0001131446
1.5916627e-05
0.00010931814
9.0865086e-06
0.00010710183
5.2976403e-06
0.00010582149
3.0015695e-06
0.00010509347
1.7127994e-06
0.00010468612
9.430662e-07
0.00010446306
5.162442e-07
0.00010434425
2.7031794e-07
0.00010428311
1.3819621e-07
0.00010425319
6.591487e-08
0.00010423959
2.9234012e-08
0.0001042342
1.0751435e-08
0.00010423268
2.4034914e-09
0.00010423281
-1.0819138e-09
0.00010423352
-2.1172502e-09
0.00010423431
-2.1448685e-09
0.000104235
-1.7798334e-09
0.00010423553
-1.3482514e-09
0.00010423592
-9.6040403e-10
0.00010423618
-6.576012e-10
0.00010423636
-4.3568841e-10
0.00010423648
-2.8154728e-10
0.00010423655
-1.7779519e-10
0.0001042366
-1.100988e-10
0.00010423662
-6.6875438e-11
0.00010423664
-3.9900399e-11
0.00010423665
-2.3363689e-11
0.00010423666
-1.3422107e-11
0.00010423666
-7.5448512e-12
0.00010423666
-4.1390954e-12
0.00010423666
-2.2038603e-12
0.00010423666
-1.1321178e-12
0.00010423666
-5.5199668e-13
0.00010423666
-2.4934463e-13
0.00010423666
-9.7108425e-14
0.00010423666
-2.6329939e-14
0.00010423666
4.1951084e-15
0.00010423666
1.4434726e-14
0.00010423666
1.5823654e-14
0.00010423666
1.2212927e-14
0.00010423666
7.0838917e-15
0.00010423666
3.1618667e-15
0.00010423666
1.1858811e-15
0.00010423666
1.738988e-15
0.00010423666
1.8007613e-15
0.00010423666
3.4080863e-15
0.00010423666
3.9703554e-15
0.00010423666
5.5566975e-15
0.00010423666
5.2622661e-15
0.00010423666
5.5926014e-15
0.00010423666
4.2918564e-15
0.00010423666
4.0072224e-15
0.00010423666
2.5195132e-15
0.00010423666
2.5370298e-15
0.00010423666
6.2733757e-16
0.00010423666
2.3177569e-16
0.00010423666
-1.0893373e-15
0.00010423666
2.142458e-16
0.00010423666
6.4745345e-16
0.00010423666
3.0449169e-15
0.00010423666
3.0800416e-15
0.00010423666
3.4259267e-15
0.00010423666
1.7008413e-15
0.00010423666
1.4023597e-15
0.00010423666
8.7118505e-16
0.00010423666
2.5890975e-15
0.00010423666
2.3492625e-15
0.00010423666
2.4597939e-15
0.00010423666
1.115612e-15
0.00010423666
5.0577161e-16
0.00010423666
-3.7579661e-16
0.00010423666
-3.5523558e-16
0.00010423666
-6.1801615e-16
0.00010423666
-2.6091317e-16
0.00010423666
-1.5745901e-16
0.00010423666
9.7699685e-17
0.00010423666
1.6673838e-16
0.00010423666
1.2070547e-16
0.00010423666
1.6787188e-16
0.00010423666
8.2249285e-17
0.00010423666
4.0770383e-16
0.00010423666
4.0573426e-16
0.00010423666
8.6870294e-16
0.00010423666
5.587203e-16
0.00010423666
8.5185935e-16
0.00010423666
1.0281218e-16
0.00010423666
2.6749201e-16
0.00010423666
-5.986228e-16
0.00010423666
-2.609078e-16
0.00010423666
-1.0237942e-15
0.00010423666
-7.3163104e-16
0.00010423666
-1.6068772e-15
0.00010423666
-1.0574087e-15
0.00010423666
-1.2144255e-15
0.00010423666
-3.4558093e-16
0.00010423666
-1.224446e-15
0.00010423666
-1.8279661e-15
0.00010423666
-3.9574518e-15
0.00010423666
-3.5098832e-15
0.00010423666
-2.0081179e-15
0.00010423666
9.2575224e-16
0.00010423666
1.5742687e-15
0.00010423666
9.0700533e-16
0.00010423666
-2.2696524e-15
0.00010423666
-3.6010711e-15
0.00010423666
-4.7928969e-15
0.00010423666
-3.6593279e-15
0.00010423666
-1.8159324e-15
0.00010423666
1.6719059e-16
0.00010423666
1.5106879e-15
0.00010423666
2.1022119e-15
0.00010423666
2.5147268e-15
0.00010423666
2.5014492e-15
0.00010423666
2.5996896e-15
0.00010423666
2.43601e-15
0.00010423666
2.5308977e-15
0.00010423666
2.3330505e-15
0.00010423666
2.5147133e-15
0.00010423666
2.3121485e-15
0.00010423666
2.5393238e-15
0.00010423666
2.2439441e-15
0.00010423666
2.4798144e-15
0.00010423666
2.1163737e-15
0.00010423666
2.3808059e-15