/*--------------------------------*- C++ -*----------------------------------*\
| =========                 |                                                 |
| \\      /  F ield         | OpenFOAM: The Open Source CFD Toolbox           |
|  \\    /   O peration     | Version:  2206                                  |
|   \\  /    A nd           | Website:  www.openfoam.com                      |
|    \\/     M anipulation  |                                                 |
\*---------------------------------------------------------------------------*/
FoamFile
{
    version     2.0;
    format      ascii;
    arch        "LSB;label=32;scalar=64";
    class       volVectorField;
    location    "29";
    object      U;
}
// * * * * * * * * * * * * * * * * * * * * * * * * * * * * * * * * * * * * * //

dimensions      [0 1 -1 0 0 0 0];

internalField   nonuniform List<vector> 
15000
(
(0.15962853 0.053997676 0)
(0.11557193 0.0064916392 0)
(0.06425136 0.0014144208 0)
(0.055918598 0.00074960259 0)
(0.047595817 0.00028827122 0)
(0.044708799 0.00019884644 0)
(0.042412495 9.0525959e-05 0)
(0.041406637 6.0132548e-05 0)
(0.040707476 2.8984092e-05 0)
(0.04037699 1.8023518e-05 0)
(0.040167798 8.6645079e-06 0)
(0.04006866 4.9967469e-06 0)
(0.040011054 2.2676126e-06 0)
(0.039985308 1.1733545e-06 0)
(0.039971973 4.4611151e-07 0)
(0.039967049 1.7341756e-07 0)
(0.03996518 1.3788117e-08 0)
(0.039965127 -3.034707e-08 0)
(0.039965544 -4.8707063e-08 0)
(0.039966152 -4.3214115e-08 0)
(0.03996668 -3.5686231e-08 0)
(0.039967111 -2.5976153e-08 0)
(0.039967422 -1.8489355e-08 0)
(0.039967642 -1.2419879e-08 0)
(0.03996779 -8.2211377e-09 0)
(0.039967887 -5.2510871e-09 0)
(0.039967949 -3.308702e-09 0)
(0.039967988 -2.0300028e-09 0)
(0.039968012 -1.2287624e-09 0)
(0.039968026 -7.277743e-10 0)
(0.039968035 -4.254328e-10 0)
(0.039968039 -2.4348991e-10 0)
(0.039968042 -1.3696007e-10 0)
(0.039968044 -7.4603844e-11 0)
(0.039968045 -3.9241585e-11 0)
(0.039968045 -1.9357979e-11 0)
(0.039968045 -8.9188509e-12 0)
(0.039968046 -3.4280022e-12 0)
(0.039968046 -8.8475723e-13 0)
(0.039968046 3.1973574e-13 0)
(0.039968046 6.6125437e-13 0)
(0.039968046 7.7618211e-13 0)
(0.039968046 7.5382846e-13 0)
(0.039968046 7.4066794e-13 0)
(0.039968046 5.5756672e-13 0)
(0.039968046 1.8610931e-13 0)
(0.039968046 -1.3869621e-13 0)
(0.039968046 -4.0153147e-13 0)
(0.039968046 -3.254537e-13 0)
(0.039968046 -2.819933e-13 0)
(0.039968046 2.6863169e-14 0)
(0.039968046 1.4869175e-13 0)
(0.039968046 3.8214471e-13 0)
(0.039968046 3.1364634e-13 0)
(0.039968046 3.7750527e-13 0)
(0.039968046 2.0972424e-13 0)
(0.039968046 2.3245857e-13 0)
(0.039968046 1.0312874e-13 0)
(0.039968046 2.2918795e-13 0)
(0.039968046 -9.8513423e-15 0)
(0.039968046 -1.153705e-14 0)
(0.039968046 -2.1127441e-13 0)
(0.039968046 -6.3450558e-15 0)
(0.039968046 1.573667e-14 0)
(0.039968046 3.0357878e-13 0)
(0.039968046 2.1259707e-13 0)
(0.039968046 1.957852e-13 0)
(0.039968046 -1.1286793e-13 0)
(0.039968046 -1.7942675e-13 0)
(0.039968046 -2.7730037e-13 0)
(0.039968046 2.9829789e-15 0)
(0.039968046 6.4621879e-14 0)
(0.039968046 2.174999e-13 0)
(0.039968046 1.0781061e-13 0)
(0.039968046 7.8350238e-14 0)
(0.039968046 -7.7816487e-14 0)
(0.039968046 -8.2797368e-14 0)
(0.039968046 -1.3134893e-13 0)
(0.039968046 -6.7335744e-14 0)
(0.039968046 -6.4809059e-14 0)
(0.039968046 -3.1358131e-14 0)
(0.039968046 -4.737573e-14 0)
(0.039968046 -5.4898591e-14 0)
(0.039968046 -7.0422949e-14 0)
(0.039968046 -8.5340648e-14 0)
(0.039968046 -5.6318338e-14 0)
(0.039968046 -4.3410026e-14 0)
(0.039968046 3.6737317e-14 0)
(0.039968046 4.2971833e-14 0)
(0.039968046 1.1100756e-13 0)
(0.039968046 5.7173104e-14 0)
(0.039968046 8.2854095e-14 0)
(0.039968046 -1.3105481e-14 0)
(0.039968046 2.9786419e-14 0)
(0.039968046 -3.701393e-14 0)
(0.039968046 2.0681539e-14 0)
(0.039968046 -5.883759e-14 0)
(0.039968046 -2.2927175e-15 0)
(0.039968046 -3.1354346e-15 0)
(0.039968046 1.3823444e-13 0)
(0.039968046 1.218221e-13 0)
(0.039968046 6.9112428e-14 0)
(0.039968046 -2.2159079e-13 0)
(0.039968046 -3.6973464e-13 0)
(0.039968046 -3.4411154e-13 0)
(0.039968046 1.7096409e-14 0)
(0.039968046 2.5577622e-13 0)
(0.039968046 4.0139303e-13 0)
(0.039968046 1.511974e-13 0)
(0.039968046 -4.2008455e-14 0)
(0.039968046 -2.7306698e-13 0)
(0.039968046 -2.9841388e-13 0)
(0.039968046 -2.3167776e-13 0)
(0.039968046 -9.9867871e-14 0)
(0.039968046 5.4639218e-14 0)
(0.039968046 9.7208814e-14 0)
(0.039968046 1.7690073e-13 0)
(0.039968046 1.4605915e-13 0)
(0.039968046 1.7223864e-13 0)
(0.039968046 1.2246218e-13 0)
(0.039968046 1.4261887e-13 0)
(0.039968046 9.9801642e-14 0)
(0.039968046 1.3288298e-13 0)
(0.039968046 9.0787675e-14 0)
(0.039968046 1.2572955e-13 0)
(0.039968046 7.2165045e-14 0)
(0.039968046 1.0808836e-13 0)
(0.039968046 5.0364151e-14 0)
(0.039968046 9.3511741e-14 0)
(0.039968046 3.3944296e-14 0)
(0.039968046 8.2702286e-14 0)
(0.039968046 1.9764359e-14 0)
(0.039968046 7.4439313e-14 0)
(0.039968046 1.1069473e-14 0)
(0.039968046 7.102901e-14 0)
(0.039968046 1.6338705e-15 0)
(0.039968046 5.9980172e-14 0)
(0.039968046 -1.9101086e-14 0)
(0.039968046 3.4435174e-14 0)
(0.039968046 -5.4201696e-14 0)
(0.039968046 -4.4847132e-15 0)
(0.039968046 -9.3187014e-14 0)
(0.039968046 -3.3419889e-14 0)
(0.039968046 -1.0767956e-13 0)
(0.039968046 -4.0570986e-14 0)
(0.039968046 -1.2055527e-13 0)
(0.039968046 -6.6884372e-14 0)
(0.039968046 -1.3864989e-13 0)
(0.039968046 -5.9583225e-14 0)
(0.039968046 -1.0528219e-13 0)
(0.039968046 -7.1444922e-14 0)
(0.039968046 -1.9353087e-13 0)
(0.039968046 -1.6443083e-13 0)
(0.039968046 -1.638126e-13 0)
(0.039968046 4.5885997e-14 0)
(0.039968046 1.8264452e-13 0)
(0.039968046 3.3946801e-13 0)
(0.039968046 3.2669416e-13 0)
(0.039968046 2.8725612e-13 0)
(0.039968046 1.6696473e-13 0)
(0.039968046 1.0888306e-13 0)
(0.039968046 3.001699e-14 0)
(0.039968046 1.6828794e-15 0)
(0.039968046 -1.8324839e-14 0)
(0.039968046 -1.0441485e-14 0)
(0.039968046 -7.5579759e-15 0)
(0.039968046 -1.2840303e-14 0)
(0.039968046 -8.435604e-15 0)
(0.039968046 -2.315535e-14 0)
(0.039968046 -1.0184046e-14 0)
(0.039968046 -2.8237949e-14 0)
(0.039968046 -5.8782405e-15 0)
(0.039968046 -2.9772523e-14 0)
(0.039968046 -4.9756713e-16 0)
(0.039968046 -3.2833263e-14 0)
(0.039968046 2.1113872e-15 0)
(0.039968046 -4.2391891e-14 0)
(0.039968046 -3.8876055e-15 0)
(0.039968046 -5.4473943e-14 0)
(0.039968046 -8.9884182e-15 0)
(0.039968046 -5.3632831e-14 0)
(0.039968046 -4.2850131e-15 0)
(0.039968046 -4.5497254e-14 0)
(0.039968046 2.4272204e-14 0)
(0.039968046 -9.9406517e-16 0)
(0.039968046 8.0920647e-14 0)
(0.039968046 5.0585443e-14 0)
(0.039968046 1.2959759e-13 0)
(0.039968046 1.0103354e-13 0)
(0.039968046 1.6879129e-13 0)
(0.039968046 1.2166294e-13 0)
(0.039968046 1.7865887e-13 0)
(0.039968046 1.796881e-13 0)
(0.039968046 2.8664478e-13 0)
(0.039968046 2.9593814e-13 0)
(0.039968046 2.5982123e-13 0)
(0.039968046 9.1839526e-14 0)
(0.039968046 -1.2355299e-13 0)
(0.039968046 -2.4187479e-13 0)
(0.039968046 -2.8679539e-13 0)
(0.039968046 -1.5755952e-13 0)
(0.039968046 -1.276452e-13 0)
(0.039968046 -7.8533232e-14 0)
(0.039968046 -1.6736301e-13 0)
(0.039968046 -6.6048673e-14 0)
(0.039968046 4.6047372e-15 0)
(0.039968046 2.2855997e-13 0)
(0.039968046 2.8120606e-13 0)
(0.039968046 3.4403003e-13 0)
(0.039968046 2.4026916e-13 0)
(0.039968046 2.0693095e-13 0)
(0.039968046 1.3107709e-13 0)
(0.039968046 1.3896964e-13 0)
(0.039968046 1.0166471e-13 0)
(0.039968046 9.7837924e-14 0)
(0.039968046 6.8989118e-14 0)
(0.039968046 1.0401923e-13 0)
(0.039968046 1.5690949e-13 0)
(0.039968046 1.8168122e-13 0)
(0.039968046 1.101093e-13 0)
(0.039968046 -7.861599e-14 0)
(0.039968046 -2.3703613e-13 0)
(0.039968046 -3.4064792e-13 0)
(0.039968046 -2.7778514e-13 0)
(0.039968046 -1.9586095e-13 0)
(0.039968046 -7.7840383e-14 0)
(0.039968046 -6.4550915e-14 0)
(0.039968046 -3.9547147e-15 0)
(0.039968046 -6.7418095e-14 0)
(0.039968046 -8.4097272e-14 0)
(0.039968046 -1.7984163e-13 0)
(0.039968046 -1.2490134e-13 0)
(0.039968046 -3.5337492e-14 0)
(0.039968046 1.799769e-13 0)
(0.039968046 2.7316961e-13 0)
(0.039968046 3.615354e-13 0)
(0.039968046 3.2575713e-13 0)
(0.039968046 3.1024744e-13 0)
(0.039968046 1.9259001e-13 0)
(0.039968046 4.7099065e-14 0)
(0.039968046 -1.3538319e-13 0)
(0.039968046 -2.6873922e-13 0)
(0.039968046 -2.8030414e-13 0)
(0.039968046 -2.2038607e-13 0)
(0.039968046 -1.4825884e-13 0)
(0.039968046 -1.4860592e-13 0)
(0.039968046 -1.45149e-13 0)
(0.039968046 -9.6985204e-14 0)
(0.039968046 5.5936392e-14 0)
(0.039968046 2.1580029e-13 0)
(0.039968046 3.2370861e-13 0)
(0.039968046 3.1943383e-13 0)
(0.039968046 2.5604402e-13 0)
(0.039968046 1.6407514e-13 0)
(0.039968046 1.1575922e-13 0)
(0.039968046 8.1600089e-14 0)
(0.039968046 8.1510018e-14 0)
(0.039968046 8.5795595e-14 0)
(0.039968046 9.320823e-14 0)
(0.039968046 9.4093733e-14 0)
(0.039968046 7.8442675e-14 0)
(0.039968046 7.4408417e-14 0)
(0.039968046 8.4038525e-14 0)
(0.039968046 1.374972e-13 0)
(0.039968046 1.4766364e-13 0)
(0.039968046 1.1014089e-13 0)
(0.039968046 -6.5389288e-14 0)
(0.039968046 -2.2327818e-13 0)
(0.039968046 -3.7364268e-13 0)
(0.039968046 -3.583855e-13 0)
(0.039968046 -3.1718796e-13 0)
(0.039968046 -2.1313885e-13 0)
(0.039968046 -2.2157823e-13 0)
(0.039968046 -1.7196364e-13 0)
(0.039968046 -1.2973015e-13 0)
(0.039968046 4.3268465e-14 0)
(0.039968046 1.8724552e-13 0)
(0.039968046 3.3901519e-13 0)
(0.039968046 3.3946869e-13 0)
(0.039968046 3.0781462e-13 0)
(0.039968046 2.3504743e-13 0)
(0.039968046 1.7675425e-13 0)
(0.039968046 1.517982e-13 0)
(0.039968046 1.1655937e-13 0)
(0.039968046 1.4178365e-13 0)
(0.039968046 1.2175563e-13 0)
(0.039968046 1.5950196e-13 0)
(0.039968046 1.2026505e-13 0)
(0.039968046 1.5340034e-13 0)
(0.039968046 1.0187622e-13 0)
(0.039968046 1.4153117e-13 0)
(0.039968046 1.0245604e-13 0)
(0.039968046 1.4321657e-13 0)
(0.039968046 6.4516793e-14 0)
(0.039968046 8.4633931e-14 0)
(0.039968046 1.0625688e-13 0)
(0.039968046 2.6611644e-13 0)
(0.039968046 1.5163687e-13 0)
(0.039968046 -8.9975611e-14 0)
(0.039968046 -2.0724457e-13 0)
(0.36732383 0.14062829 0)
(0.29754389 0.025079378 0)
(0.1860793 0.0083694645 0)
(0.16132807 0.0041218826 0)
(0.13901859 0.001937589 0)
(0.13040448 0.0011770326 0)
(0.12396461 0.00061113841 0)
(0.12095998 0.00037193029 0)
(0.1189454 0.00019727695 0)
(0.11794826 0.00011565023 0)
(0.11733081 6.0265931e-05 0)
(0.11702581 3.3418591e-05 0)
(0.11685066 1.6512281e-05 0)
(0.11676842 8.3919684e-06 0)
(0.1167257 3.6618831e-06 0)
(0.11670834 1.5194323e-06 0)
(0.1167012 3.9837059e-07 0)
(0.11669986 -2.8698748e-08 0)
(0.1167004 -1.9925012e-07 0)
(0.11670175 -2.1585699e-07 0)
(0.11670304 -1.9016641e-07 0)
(0.11670415 -1.4584851e-07 0)
(0.11670497 -1.0624252e-07 0)
(0.11670557 -7.3214846e-08 0)
(0.11670597 -4.9120794e-08 0)
(0.11670624 -3.1897962e-08 0)
(0.11670642 -2.0314057e-08 0)
(0.11670653 -1.2631497e-08 0)
(0.11670659 -7.7238046e-09 0)
(0.11670664 -4.6295017e-09 0)
(0.11670666 -2.7311635e-09 0)
(0.11670667 -1.5798709e-09 0)
(0.11670668 -8.9699132e-10 0)
(0.11670669 -4.9624565e-10 0)
(0.11670669 -2.6661473e-10 0)
(0.11670669 -1.3714893e-10 0)
(0.11670669 -6.7120618e-11 0)
(0.11670669 -2.9887732e-11 0)
(0.11670669 -1.1455935e-11 0)
(0.11670669 -2.5151102e-12 0)
(0.11670669 1.0082315e-12 0)
(0.11670669 2.3682203e-12 0)
(0.11670669 2.6246559e-12 0)
(0.11670669 2.6326676e-12 0)
(0.11670669 1.9972016e-12 0)
(0.11670669 8.0848867e-13 0)
(0.11670669 -3.0586825e-13 0)
(0.11670669 -1.1151411e-12 0)
(0.11670669 -1.0282564e-12 0)
(0.11670669 -8.793552e-13 0)
(0.11670669 -4.9683548e-14 0)
(0.11670669 3.774039e-13 0)
(0.11670669 1.0032938e-12 0)
(0.11670669 8.6218199e-13 0)
(0.11670669 9.9689946e-13 0)
(0.11670669 5.9584352e-13 0)
(0.11670669 6.5239374e-13 0)
(0.11670669 3.8124633e-13 0)
(0.11670669 6.5306982e-13 0)
(0.11670669 5.3280522e-14 0)
(0.11670669 -1.1035532e-13 0)
(0.11670669 -5.9952122e-13 0)
(0.11670669 -1.1163915e-13 0)
(0.11670669 7.0878694e-14 0)
(0.11670669 8.5243615e-13 0)
(0.11670669 6.8326324e-13 0)
(0.11670669 5.8306703e-13 0)
(0.11670669 -2.4952795e-13 0)
(0.11670669 -4.8501586e-13 0)
(0.11670669 -6.9627597e-13 0)
(0.11670669 4.2190188e-14 0)
(0.11670669 3.0399716e-13 0)
(0.11670669 7.0254316e-13 0)
(0.11670669 4.6520718e-13 0)
(0.11670669 3.0450655e-13 0)
(0.11670669 -9.9117819e-14 0)
(0.11670669 -1.8006403e-13 0)
(0.11670669 -2.7693537e-13 0)
(0.11670669 -1.2725293e-13 0)
(0.11670669 -7.853792e-14 0)
(0.11670669 -1.5108295e-14 0)
(0.11670669 -3.2715073e-14 0)
(0.11670669 -8.6626769e-14 0)
(0.11670669 -1.1255495e-13 0)
(0.11670669 -1.815699e-13 0)
(0.11670669 -8.8336586e-14 0)
(0.11670669 -6.0647342e-14 0)
(0.11670669 1.820066e-13 0)
(0.11670669 1.9957874e-13 0)
(0.11670669 4.0748492e-13 0)
(0.11670669 2.4132551e-13 0)
(0.11670669 3.1730187e-13 0)
(0.11670669 2.0600796e-14 0)
(0.11670669 1.3951279e-13 0)
(0.11670669 -6.5592621e-14 0)
(0.11670669 1.0294617e-13 0)
(0.11670669 -1.490516e-13 0)
(0.11670669 1.9263985e-14 0)
(0.11670669 -7.5228136e-15 0)
(0.11670669 4.3201889e-13 0)
(0.11670669 3.8825613e-13 0)
(0.11670669 2.7387034e-13 0)
(0.11670669 -6.4976971e-13 0)
(0.11670669 -1.1028096e-12 0)
(0.11670669 -1.0970458e-12 0)
(0.11670669 -3.9142614e-14 0)
(0.11670669 7.2975493e-13 0)
(0.11670669 1.1781452e-12 0)
(0.11670669 4.1653116e-13 0)
(0.11670669 -1.9743999e-13 0)
(0.11670669 -9.4048706e-13 0)
(0.11670669 -1.0662976e-12 0)
(0.11670669 -8.8984536e-13 0)
(0.11670669 -4.3592534e-13 0)
(0.11670669 1.9666768e-15 0)
(0.11670669 2.4247074e-13 0)
(0.11670669 4.1872221e-13 0)
(0.11670669 3.9896672e-13 0)
(0.11670669 4.1750301e-13 0)
(0.11670669 3.193577e-13 0)
(0.11670669 3.3052707e-13 0)
(0.11670669 2.4726975e-13 0)
(0.11670669 3.0537588e-13 0)
(0.11670669 2.2362055e-13 0)
(0.11670669 2.8934209e-13 0)
(0.11670669 1.7165011e-13 0)
(0.11670669 2.4070772e-13 0)
(0.11670669 1.0961588e-13 0)
(0.11670669 2.0012116e-13 0)
(0.11670669 6.4491977e-14 0)
(0.11670669 1.7172601e-13 0)
(0.11670669 2.8129547e-14 0)
(0.11670669 1.511253e-13 0)
(0.11670669 7.6755978e-15 0)
(0.11670669 1.4777598e-13 0)
(0.11670669 -1.3120371e-14 0)
(0.11670669 1.2168654e-13 0)
(0.11670669 -6.7593269e-14 0)
(0.11670669 5.1616051e-14 0)
(0.11670669 -1.6486623e-13 0)
(0.11670669 -5.8539332e-14 0)
(0.11670669 -2.7723863e-13 0)
(0.11670669 -1.4026929e-13 0)
(0.11670669 -3.1550739e-13 0)
(0.11670669 -1.51805e-13 0)
(0.11670669 -3.447823e-13 0)
(0.11670669 -2.2333761e-13 0)
(0.11670669 -4.0051115e-13 0)
(0.11670669 -1.979082e-13 0)
(0.11670669 -3.0081711e-13 0)
(0.11670669 -2.2004766e-13 0)
(0.11670669 -5.4759649e-13 0)
(0.11670669 -5.104251e-13 0)
(0.11670669 -4.8577121e-13 0)
(0.11670669 1.2524106e-13 0)
(0.11670669 5.5832761e-13 0)
(0.11670669 1.0488491e-12 0)
(0.11670669 1.0479073e-12 0)
(0.11670669 9.1467147e-13 0)
(0.11670669 5.8432801e-13 0)
(0.11670669 4.0053118e-13 0)
(0.11670669 1.772107e-13 0)
(0.11670669 8.6131224e-14 0)
(0.11670669 2.0853035e-14 0)
(0.11670669 2.6715858e-14 0)
(0.11670669 3.7515887e-14 0)
(0.11670669 1.3772463e-14 0)
(0.11670669 2.385728e-14 0)
(0.11670669 -1.9734041e-14 0)
(0.11670669 1.2268144e-14 0)
(0.11670669 -3.6361529e-14 0)
(0.11670669 1.9972944e-14 0)
(0.11670669 -4.0830736e-14 0)
(0.11670669 3.1557597e-14 0)
(0.11670669 -4.8533776e-14 0)
(0.11670669 3.6416542e-14 0)
(0.11670669 -7.0957268e-14 0)
(0.11670669 1.8974665e-14 0)
(0.11670669 -1.0222893e-13 0)
(0.11670669 2.430682e-15 0)
(0.11670669 -1.0403506e-13 0)
(0.11670669 7.9326999e-15 0)
(0.11670669 -9.4342079e-14 0)
(0.11670669 7.5537783e-14 0)
(0.11670669 2.3204783e-14 0)
(0.11670669 2.3306496e-13 0)
(0.11670669 1.6802424e-13 0)
(0.11670669 3.687886e-13 0)
(0.11670669 3.0489091e-13 0)
(0.11670669 4.721496e-13 0)
(0.11670669 3.4515056e-13 0)
(0.11670669 4.7305624e-13 0)
(0.11670669 4.824471e-13 0)
(0.11670669 7.6512376e-13 0)
(0.11670669 8.0816008e-13 0)
(0.11670669 6.9352985e-13 0)
(0.11670669 1.6493939e-13 0)
(0.11670669 -4.8262405e-13 0)
(0.11670669 -8.7645735e-13 0)
(0.11670669 -1.0014184e-12 0)
(0.11670669 -6.0869461e-13 0)
(0.11670669 -4.4813957e-13 0)
(0.11670669 -2.9482009e-13 0)
(0.11670669 -5.0265613e-13 0)
(0.11670669 -2.4070101e-13 0)
(0.11670669 3.1209557e-14 0)
(0.11670669 6.8003021e-13 0)
(0.11670669 9.0982281e-13 0)
(0.11670669 1.0838616e-12 0)
(0.11670669 8.0866277e-13 0)
(0.11670669 6.9509326e-13 0)
(0.11670669 4.7845808e-13 0)
(0.11670669 4.9181467e-13 0)
(0.11670669 3.8683976e-13 0)
(0.11670669 3.7399712e-13 0)
(0.11670669 2.8338221e-13 0)
(0.11670669 3.8332073e-13 0)
(0.11670669 5.5205301e-13 0)
(0.11670669 6.4985792e-13 0)
(0.11670669 4.5282457e-13 0)
(0.11670669 -9.9904185e-14 0)
(0.11670669 -6.0050993e-13 0)
(0.11670669 -9.2887141e-13 0)
(0.11670669 -7.740674e-13 0)
(0.11670669 -5.4468891e-13 0)
(0.11670669 -2.3671284e-13 0)
(0.11670669 -1.9131145e-13 0)
(0.11670669 -5.0460725e-14 0)
(0.11670669 -2.1446929e-13 0)
(0.11670669 -2.9984517e-13 0)
(0.11670669 -5.7638665e-13 0)
(0.11670669 -4.6393561e-13 0)
(0.11670669 -1.6184866e-13 0)
(0.11670669 4.4632068e-13 0)
(0.11670669 7.8737097e-13 0)
(0.11670669 1.0342114e-12 0)
(0.11670669 9.5673593e-13 0)
(0.11670669 9.1849962e-13 0)
(0.11670669 5.8573409e-13 0)
(0.11670669 1.5879732e-13 0)
(0.11670669 -4.1052549e-13 0)
(0.11670669 -8.1446624e-13 0)
(0.11670669 -8.807806e-13 0)
(0.11670669 -7.0045035e-13 0)
(0.11670669 -4.8394437e-13 0)
(0.11670669 -4.8342455e-13 0)
(0.11670669 -4.9345624e-13 0)
(0.11670669 -3.6029857e-13 0)
(0.11670669 9.9725359e-14 0)
(0.11670669 5.948938e-13 0)
(0.11670669 9.5383121e-13 0)
(0.11670669 9.6995095e-13 0)
(0.11670669 7.8565745e-13 0)
(0.11670669 5.2724512e-13 0)
(0.11670669 3.7917558e-13 0)
(0.11670669 2.8016098e-13 0)
(0.11670669 2.8148429e-13 0)
(0.11670669 2.9105758e-13 0)
(0.11670669 3.2032188e-13 0)
(0.11670669 3.1931405e-13 0)
(0.11670669 2.8350047e-13 0)
(0.11670669 2.5924585e-13 0)
(0.11670669 2.9213536e-13 0)
(0.11670669 4.4596597e-13 0)
(0.11670669 5.0870675e-13 0)
(0.11670669 3.8782295e-13 0)
(0.11670669 -1.0868722e-13 0)
(0.11670669 -6.2037339e-13 0)
(0.11670669 -1.0699311e-12 0)
(0.11670669 -1.0572691e-12 0)
(0.11670669 -9.3178689e-13 0)
(0.11670669 -6.4116672e-13 0)
(0.11670669 -6.7236523e-13 0)
(0.11670669 -5.7384952e-13 0)
(0.11670669 -4.7093467e-13 0)
(0.11670669 -5.1884963e-15 0)
(0.11670669 4.7411665e-13 0)
(0.11670669 9.142667e-13 0)
(0.11670669 9.5874407e-13 0)
(0.11670669 8.6853977e-13 0)
(0.11670669 6.6238516e-13 0)
(0.11670669 5.0928275e-13 0)
(0.11670669 4.247069e-13 0)
(0.11670669 3.4112896e-13 0)
(0.11670669 4.0117164e-13 0)
(0.11670669 3.6431646e-13 0)
(0.11670669 4.562687e-13 0)
(0.11670669 3.7500529e-13 0)
(0.11670669 4.4469724e-13 0)
(0.11670669 3.2769143e-13 0)
(0.11670669 4.1199992e-13 0)
(0.11670669 3.3261119e-13 0)
(0.11670669 4.2716084e-13 0)
(0.11670669 2.3438618e-13 0)
(0.11670669 2.4495142e-13 0)
(0.11670669 3.2624434e-13 0)
(0.11670669 8.0367275e-13 0)
(0.11670669 5.4557339e-13 0)
(0.11670669 -2.4068568e-13 0)
(0.11670669 -6.3972574e-13 0)
(0.50390834 0.19019021 0)
(0.43847039 0.050431497 0)
(0.29767008 0.022055317 0)
(0.25944374 0.010780109 0)
(0.22598939 0.0055621505 0)
(0.21213187 0.0032308104 0)
(0.20205719 0.0017733025 0)
(0.19716897 0.0010457521 0)
(0.19394744 0.00057680779 0)
(0.19230772 0.000331344 0)
(0.19130242 0.00017833537 0)
(0.19079327 9.7729145e-05 0)
(0.19050201 4.9922795e-05 0)
(0.1903612 2.5324825e-05 0)
(0.19028763 1.1617699e-05 0)
(0.19025609 4.9666355e-06 0)
(0.1902425 1.5947079e-06 0)
(0.19023894 1.7246615e-07 0)
(0.19023899 -4.0021167e-07 0)
(0.19024063 -5.2251658e-07 0)
(0.19024241 -4.8476675e-07 0)
(0.19024402 -3.8460997e-07 0)
(0.19024524 -2.8464945e-07 0)
(0.19024615 -1.991235e-07 0)
(0.19024677 -1.3474337e-07 0)
(0.19024719 -8.8313235e-08 0)
(0.19024746 -5.6601444e-08 0)
(0.19024763 -3.5451682e-08 0)
(0.19024774 -2.1801679e-08 0)
(0.1902478 -1.3149635e-08 0)
(0.19024784 -7.7965306e-09 0)
(0.19024787 -4.5350357e-09 0)
(0.19024788 -2.5880092e-09 0)
(0.19024789 -1.4426113e-09 0)
(0.19024789 -7.8304652e-10 0)
(0.19024789 -4.1025169e-10 0)
(0.1902479 -2.0603251e-10 0)
(0.1902479 -9.6658972e-11 0)
(0.1902479 -4.0907895e-11 0)
(0.1902479 -1.3441243e-11 0)
(0.1902479 -1.4582855e-12 0)
(0.1902479 3.41661e-12 0)
(0.1902479 4.7793264e-12 0)
(0.1902479 4.868664e-12 0)
(0.1902479 3.7197567e-12 0)
(0.1902479 1.7932204e-12 0)
(0.1902479 5.2212078e-14 0)
(0.1902479 -1.1230871e-12 0)
(0.1902479 -1.0453581e-12 0)
(0.1902479 -8.8513913e-13 0)
(0.1902479 1.7386026e-13 0)
(0.1902479 7.3957542e-13 0)
(0.1902479 1.5763689e-12 0)
(0.1902479 1.4222658e-12 0)
(0.1902479 1.5931559e-12 0)
(0.1902479 1.0682185e-12 0)
(0.1902479 1.1061452e-12 0)
(0.1902479 6.9740292e-13 0)
(0.1902479 9.7368652e-13 0)
(0.1902479 1.3625746e-13 0)
(0.1902479 -1.3155836e-13 0)
(0.1902479 -7.8194758e-13 0)
(0.1902479 -1.329814e-13 0)
(0.1902479 1.6652146e-13 0)
(0.1902479 1.2587406e-12 0)
(0.1902479 1.1149943e-12 0)
(0.1902479 1.0193056e-12 0)
(0.1902479 -4.8969295e-14 0)
(0.1902479 -3.5800967e-13 0)
(0.1902479 -6.2891408e-13 0)
(0.1902479 3.2545339e-13 0)
(0.1902479 6.276484e-13 0)
(0.1902479 1.0812694e-12 0)
(0.1902479 7.164198e-13 0)
(0.1902479 4.6207531e-13 0)
(0.1902479 -7.3630485e-14 0)
(0.1902479 -1.7989288e-13 0)
(0.1902479 -3.0720167e-13 0)
(0.1902479 -1.086599e-13 0)
(0.1902479 -3.9246398e-14 0)
(0.1902479 5.4179548e-14 0)
(0.1902479 3.7881167e-14 0)
(0.1902479 -2.8146713e-14 0)
(0.1902479 -6.0482008e-14 0)
(0.1902479 -1.4460426e-13 0)
(0.1902479 -1.9979302e-14 0)
(0.1902479 2.0796521e-14 0)
(0.1902479 3.2858054e-13 0)
(0.1902479 3.357414e-13 0)
(0.1902479 5.852756e-13 0)
(0.1902479 3.4299074e-13 0)
(0.1902479 4.2265373e-13 0)
(0.1902479 1.9347545e-14 0)
(0.1902479 1.5898801e-13 0)
(0.1902479 -1.2619666e-13 0)
(0.1902479 6.8999606e-14 0)
(0.1902479 -2.79334e-13 0)
(0.1902479 -6.4716371e-14 0)
(0.1902479 -9.2870491e-14 0)
(0.1902479 4.6454477e-13 0)
(0.1902479 3.6814427e-13 0)
(0.1902479 1.6000052e-13 0)
(0.1902479 -1.0756569e-12 0)
(0.1902479 -1.6034032e-12 0)
(0.1902479 -1.4716163e-12 0)
(0.1902479 -3.1484169e-14 0)
(0.1902479 9.524188e-13 0)
(0.1902479 1.4007276e-12 0)
(0.1902479 2.7620288e-13 0)
(0.1902479 -5.9115332e-13 0)
(0.1902479 -1.5713684e-12 0)
(0.1902479 -1.6577465e-12 0)
(0.1902479 -1.3045383e-12 0)
(0.1902479 -6.0387522e-13 0)
(0.1902479 5.31308e-14 0)
(0.1902479 4.0446967e-13 0)
(0.1902479 6.5313327e-13 0)
(0.1902479 6.3543828e-13 0)
(0.1902479 6.6290887e-13 0)
(0.1902479 5.3772642e-13 0)
(0.1902479 5.5429079e-13 0)
(0.1902479 4.4611106e-13 0)
(0.1902479 5.2390148e-13 0)
(0.1902479 4.2033956e-13 0)
(0.1902479 5.0967409e-13 0)
(0.1902479 3.5781259e-13 0)
(0.1902479 4.4934474e-13 0)
(0.1902479 2.7783823e-13 0)
(0.1902479 3.9489612e-13 0)
(0.1902479 2.1733831e-13 0)
(0.1902479 3.5681299e-13 0)
(0.1902479 1.6961604e-13 0)
(0.1902479 3.2979504e-13 0)
(0.1902479 1.4349539e-13 0)
(0.1902479 3.2606666e-13 0)
(0.1902479 1.168459e-13 0)
(0.1902479 2.9067217e-13 0)
(0.1902479 4.4991026e-14 0)
(0.1902479 1.9736252e-13 0)
(0.1902479 -8.3153393e-14 0)
(0.1902479 5.3859336e-14 0)
(0.1902479 -2.2882247e-13 0)
(0.1902479 -5.1134171e-14 0)
(0.1902479 -2.7619623e-13 0)
(0.1902479 -6.3850969e-14 0)
(0.1902479 -3.1276167e-13 0)
(0.1902479 -1.5216963e-13 0)
(0.1902479 -3.7462896e-13 0)
(0.1902479 -1.0456207e-13 0)
(0.1902479 -2.4218055e-13 0)
(0.1902479 -1.4690391e-13 0)
(0.1902479 -5.7062702e-13 0)
(0.1902479 -4.9340621e-13 0)
(0.1902479 -4.1752483e-13 0)
(0.1902479 4.1706933e-13 0)
(0.1902479 9.730007e-13 0)
(0.1902479 1.5630055e-12 0)
(0.1902479 1.4871887e-12 0)
(0.1902479 1.2393443e-12 0)
(0.1902479 7.5561645e-13 0)
(0.1902479 4.7236425e-13 0)
(0.1902479 1.4359944e-13 0)
(0.1902479 1.6861755e-15 0)
(0.1902479 -1.0026249e-13 0)
(0.1902479 -9.9319852e-14 0)
(0.1902479 -8.4538125e-14 0)
(0.1902479 -1.1310982e-13 0)
(0.1902479 -1.0136161e-13 0)
(0.1902479 -1.5941601e-13 0)
(0.1902479 -1.2194378e-13 0)
(0.1902479 -1.8703772e-13 0)
(0.1902479 -1.1951734e-13 0)
(0.1902479 -2.0122748e-13 0)
(0.1902479 -1.1280411e-13 0)
(0.1902479 -2.1906144e-13 0)
(0.1902479 -1.1524458e-13 0)
(0.1902479 -2.5512638e-13 0)
(0.1902479 -1.4266666e-13 0)
(0.1902479 -2.9785884e-13 0)
(0.1902479 -1.6530649e-13 0)
(0.1902479 -2.9809012e-13 0)
(0.1902479 -1.5494653e-13 0)
(0.1902479 -2.7759229e-13 0)
(0.1902479 -5.7726668e-14 0)
(0.1902479 -1.1683481e-13 0)
(0.1902479 1.5345099e-13 0)
(0.1902479 7.7858168e-14 0)
(0.1902479 3.3807781e-13 0)
(0.1902479 2.5702373e-13 0)
(0.1902479 4.6326527e-13 0)
(0.1902479 2.8636043e-13 0)
(0.1902479 4.3633986e-13 0)
(0.1902479 4.3592278e-13 0)
(0.1902479 7.7351166e-13 0)
(0.1902479 7.8034889e-13 0)
(0.1902479 5.7507084e-13 0)
(0.1902479 -1.5712506e-13 0)
(0.1902479 -9.8955986e-13 0)
(0.1902479 -1.4316675e-12 0)
(0.1902479 -1.4823928e-12 0)
(0.1902479 -8.7252419e-13 0)
(0.1902479 -5.8878002e-13 0)
(0.1902479 -3.2929268e-13 0)
(0.1902479 -5.1596098e-13 0)
(0.1902479 -1.0438929e-13 0)
(0.1902479 3.0873359e-13 0)
(0.1902479 1.1458537e-12 0)
(0.1902479 1.393223e-12 0)
(0.1902479 1.5265297e-12 0)
(0.1902479 1.0942989e-12 0)
(0.1902479 8.8848601e-13 0)
(0.1902479 5.7191889e-13 0)
(0.1902479 5.5985996e-13 0)
(0.1902479 4.0754082e-13 0)
(0.1902479 3.8619248e-13 0)
(0.1902479 2.7997357e-13 0)
(0.1902479 4.2945533e-13 0)
(0.1902479 6.6003745e-13 0)
(0.1902479 7.6986384e-13 0)
(0.1902479 4.8336437e-13 0)
(0.1902479 -2.5714462e-13 0)
(0.1902479 -8.8837644e-13 0)
(0.1902479 -1.2526872e-12 0)
(0.1902479 -9.6440415e-13 0)
(0.1902479 -6.0469185e-13 0)
(0.1902479 -1.7177453e-13 0)
(0.1902479 -9.8497763e-14 0)
(0.1902479 7.5397281e-14 0)
(0.1902479 -1.5676505e-13 0)
(0.1902479 -2.8659068e-13 0)
(0.1902479 -6.4088857e-13 0)
(0.1902479 -4.729814e-13 0)
(0.1902479 -4.3558391e-14 0)
(0.1902479 7.4371375e-13 0)
(0.1902479 1.1436236e-12 0)
(0.1902479 1.3877945e-12 0)
(0.1902479 1.2021319e-12 0)
(0.1902479 1.0850872e-12 0)
(0.1902479 5.8186582e-13 0)
(0.1902479 -1.8008921e-14 0)
(0.1902479 -7.7017599e-13 0)
(0.1902479 -1.2498312e-12 0)
(0.1902479 -1.2538951e-12 0)
(0.1902479 -9.4593445e-13 0)
(0.1902479 -6.1418109e-13 0)
(0.1902479 -5.7418486e-13 0)
(0.1902479 -5.4406677e-13 0)
(0.1902479 -3.2217465e-13 0)
(0.1902479 3.1232807e-13 0)
(0.1902479 9.5166494e-13 0)
(0.1902479 1.3604353e-12 0)
(0.1902479 1.3052564e-12 0)
(0.1902479 9.951468e-13 0)
(0.1902479 6.2344138e-13 0)
(0.1902479 4.089635e-13 0)
(0.1902479 2.7183855e-13 0)
(0.1902479 2.7053741e-13 0)
(0.1902479 2.8262315e-13 0)
(0.1902479 3.2309507e-13 0)
(0.1902479 3.2011214e-13 0)
(0.1902479 2.7721684e-13 0)
(0.1902479 2.4818438e-13 0)
(0.1902479 3.0229449e-13 0)
(0.1902479 5.0033784e-13 0)
(0.1902479 5.6676171e-13 0)
(0.1902479 3.6714801e-13 0)
(0.1902479 -3.0735458e-13 0)
(0.1902479 -9.7504339e-13 0)
(0.1902479 -1.4992055e-12 0)
(0.1902479 -1.3968942e-12 0)
(0.1902479 -1.168535e-12 0)
(0.1902479 -7.6383968e-13 0)
(0.1902479 -7.9327029e-13 0)
(0.1902479 -6.5143444e-13 0)
(0.1902479 -4.8721977e-13 0)
(0.1902479 1.360249e-13 0)
(0.1902479 7.6103255e-13 0)
(0.1902479 1.2669298e-12 0)
(0.1902479 1.235924e-12 0)
(0.1902479 1.0401859e-12 0)
(0.1902479 7.1558977e-13 0)
(0.1902479 4.8790205e-13 0)
(0.1902479 3.6191907e-13 0)
(0.1902479 2.5288501e-13 0)
(0.1902479 3.3108906e-13 0)
(0.1902479 2.8757259e-13 0)
(0.1902479 4.0881941e-13 0)
(0.1902479 3.1075305e-13 0)
(0.1902479 4.0473368e-13 0)
(0.1902479 2.63031e-13 0)
(0.1902479 3.7886098e-13 0)
(0.1902479 2.8573368e-13 0)
(0.1902479 4.0703372e-13 0)
(0.1902479 1.5972943e-13 0)
(0.1902479 1.8433382e-13 0)
(0.1902479 3.1650089e-13 0)
(0.1902479 9.3116131e-13 0)
(0.1902479 5.4462802e-13 0)
(0.1902479 -5.1855261e-13 0)
(0.1902479 -9.4528849e-13 0)
(0.59346672 0.21467329 0)
(0.54593347 0.075998402 0)
(0.39702192 0.0393123 0)
(0.34953974 0.019720565 0)
(0.30792187 0.010726743 0)
(0.28963523 0.0061583844 0)
(0.27651264 0.0034761923 0)
(0.26994405 0.0020291142 0)
(0.26565503 0.0011410003 0)
(0.26342423 0.00065141542 0)
(0.26206335 0.00035633939 0)
(0.26136077 0.00019487732 0)
(0.26095907 0.00010129591 0)
(0.26076048 5.1591934e-05 0)
(0.260656 2.4315815e-05 0)
(0.26060945 1.0643297e-05 0)
(0.26058866 3.7598996e-06 0)
(0.26058217 7.1112447e-07 0)
(0.26058122 -5.4282039e-07 0)
(0.26058278 -8.8416478e-07 0)
(0.2605848 -8.6434816e-07 0)
(0.26058673 -7.0529859e-07 0)
(0.26058825 -5.2952773e-07 0)
(0.26058939 -3.7473351e-07 0)
(0.26059018 -2.5544968e-07 0)
(0.26059072 -1.6859398e-07 0)
(0.26059108 -1.0861849e-07 0)
(0.2605913 -6.8394004e-08 0)
(0.26059144 -4.2246763e-08 0)
(0.26059153 -2.55974e-08 0)
(0.26059158 -1.5237243e-08 0)
(0.26059162 -8.9006632e-09 0)
(0.26059163 -5.1006703e-09 0)
(0.26059164 -2.858678e-09 0)
(0.26059165 -1.5625971e-09 0)
(0.26059165 -8.2774887e-10 0)
(0.26059166 -4.2222993e-10 0)
(0.26059166 -2.0357807e-10 0)
(0.26059166 -9.0283657e-11 0)
(0.26059166 -3.3708078e-11 0)
(0.26059166 -7.8519964e-12 0)
(0.26059166 3.0805127e-12 0)
(0.26059166 6.5836988e-12 0)
(0.26059166 6.9372962e-12 0)
(0.26059166 5.3140626e-12 0)
(0.26059166 2.8979196e-12 0)
(0.26059166 9.4969984e-13 0)
(0.26059166 -1.8422803e-13 0)
(0.26059166 3.7598787e-14 0)
(0.26059166 1.1451604e-13 0)
(0.26059166 1.0774251e-12 0)
(0.26059166 1.4905655e-12 0)
(0.26059166 2.3475598e-12 0)
(0.26059166 2.1940073e-12 0)
(0.26059166 2.3847815e-12 0)
(0.26059166 1.7658139e-12 0)
(0.26059166 1.7040357e-12 0)
(0.26059166 1.0594484e-12 0)
(0.26059166 1.197638e-12 0)
(0.26059166 2.2162656e-13 0)
(0.26059166 1.6713289e-14 0)
(0.26059166 -6.9287247e-13 0)
(0.26059166 9.3671308e-15 0)
(0.26059166 2.6453879e-13 0)
(0.26059166 1.4838411e-12 0)
(0.26059166 1.42767e-12 0)
(0.26059166 1.5068523e-12 0)
(0.26059166 5.2320132e-13 0)
(0.26059166 3.0986726e-13 0)
(0.26059166 2.2474715e-14 0)
(0.26059166 9.5433287e-13 0)
(0.26059166 9.9997182e-13 0)
(0.26059166 1.2404576e-12 0)
(0.26059166 6.5817184e-13 0)
(0.26059166 3.8225577e-13 0)
(0.26059166 -1.3893705e-13 0)
(0.26059166 -1.6141054e-13 0)
(0.26059166 -3.1063625e-13 0)
(0.26059166 -1.0201577e-13 0)
(0.26059166 -5.3506804e-14 0)
(0.26059166 7.8803022e-14 0)
(0.26059166 7.9744741e-14 0)
(0.26059166 4.9814869e-14 0)
(0.26059166 3.7103311e-14 0)
(0.26059166 -1.2786554e-14 0)
(0.26059166 1.2786522e-13 0)
(0.26059166 1.5650207e-13 0)
(0.26059166 4.1714379e-13 0)
(0.26059166 3.3849403e-13 0)
(0.26059166 5.1923349e-13 0)
(0.26059166 2.0164791e-13 0)
(0.26059166 2.6639121e-13 0)
(0.26059166 -1.5221037e-13 0)