/*--------------------------------*- C++ -*----------------------------------*\
| =========                 |                                                 |
| \\      /  F ield         | OpenFOAM: The Open Source CFD Toolbox           |
|  \\    /   O peration     | Version:  2206                                  |
|   \\  /    A nd           | Website:  www.openfoam.com                      |
|    \\/     M anipulation  |                                                 |
\*---------------------------------------------------------------------------*/
FoamFile
{
    version     2.0;
    format      ascii;
    arch        "LSB;label=32;scalar=64";
    class       surfaceScalarField;
    location    "19";
    object      phi;
}
// * * * * * * * * * * * * * * * * * * * * * * * * * * * * * * * * * * * * * //

dimensions      [0 3 -1 0 0 0 0];

oriented        oriented;

internalField   nonuniform List<scalar> 
29650
(
6.0867648e-05
0.00020579915
3.2718169e-05
2.814948e-05
2.4599021e-05
8.1191569e-06
2.0417849e-05
4.1811844e-06
1.8552178e-05
1.865681e-06
1.73737e-05
1.1784844e-06
1.6781661e-05
5.920423e-07
1.6412314e-05
3.6934846e-07
1.622082e-05
1.9149583e-07
1.6106686e-05
1.1413665e-07
1.6048258e-05
5.8429981e-08
1.6015474e-05
3.2786118e-08
1.5999542e-05
1.5934291e-08
1.5991376e-05
8.1671894e-09
1.5987889e-05
3.4880001e-09
1.598644e-05
1.4490156e-09
1.5986091e-05
3.4970551e-10
1.5986138e-05
-4.8156682e-11
1.5986349e-05
-2.1148982e-10
1.5986569e-05
-2.2028187e-10
1.5986762e-05
-1.9260539e-10
1.5986908e-05
-1.4636101e-10
1.5987014e-05
-1.063118e-10
1.5987087e-05
-7.289265e-11
1.5987136e-05
-4.8778864e-11
1.5987167e-05
-3.1559406e-11
1.5987187e-05
-2.0059934e-11
1.59872e-05
-1.2446029e-11
1.5987208e-05
-7.6007282e-12
1.5987212e-05
-4.5462271e-12
1.5987215e-05
-2.6763572e-12
1.5987216e-05
-1.544775e-12
1.5987217e-05
-8.7642913e-13
1.5987218e-05
-4.8582856e-13
1.5987218e-05
-2.6228417e-13
1.5987218e-05
-1.3653535e-13
1.5987218e-05
-6.7919289e-14
1.5987218e-05
-3.1884974e-14
1.5987218e-05
-1.3786737e-14
1.5987218e-05
-5.4300952e-15
1.5987218e-05
-1.6975641e-15
1.5987218e-05
-1.0417036e-16
1.5987218e-05
9.5885721e-16
1.5987218e-05
1.5031972e-15
1.5987218e-05
1.2022792e-15
1.5987218e-05
3.7092285e-16
1.5987218e-05
-1.7523503e-16
1.5987218e-05
8.3506886e-17
1.5987218e-05
6.8125378e-16
1.5987218e-05
1.0940054e-15
1.5987218e-05
1.0500911e-15
1.5987218e-05
9.3485392e-16
1.5987218e-05
6.6192057e-16
1.5987218e-05
6.454373e-16
1.5987218e-05
6.3753029e-16
1.5987218e-05
8.1187573e-16
1.5987218e-05
7.4117993e-16
1.5987218e-05
7.5295344e-16
1.5987218e-05
5.6973695e-16
1.5987218e-05
5.8551365e-16
1.5987218e-05
3.967146e-16
1.5987218e-05
2.3999618e-16
1.5987218e-05
-1.7582056e-17
1.5987218e-05
-7.93891e-17
1.5987218e-05
-1.1063204e-16
1.5987218e-05
7.8683462e-17
1.5987218e-05
1.9854053e-16
1.5987218e-05
4.4676586e-16
1.5987218e-05
4.5554598e-16
1.5987218e-05
4.7156029e-16
1.5987218e-05
3.0804034e-16
1.5987218e-05
5.2606931e-16
1.5987218e-05
6.8770551e-16
1.5987218e-05
1.0680694e-15
1.5987218e-05
1.0662569e-15
1.5987218e-05
1.0155882e-15
1.5987218e-05
5.8932575e-16
1.5987218e-05
2.6269699e-16
1.5987218e-05
-8.8911173e-17
1.5987218e-05
-2.4267359e-16
1.5987218e-05
-4.035633e-16
1.5987218e-05
-4.3545889e-16
1.5987218e-05
-5.1497413e-16
1.5987218e-05
-5.1699695e-16
1.5987218e-05
-5.6444295e-16
1.5987218e-05
-5.6062464e-16
1.5987218e-05
-5.8996913e-16
1.5987218e-05
-5.8562829e-16
1.5987218e-05
-5.966154e-16
1.5987218e-05
-5.7847767e-16
1.5987218e-05
-5.7298316e-16
1.5987218e-05
-5.7364852e-16
1.5987218e-05
-5.8645248e-16
1.5987218e-05
-5.9316549e-16
1.5987218e-05
-5.5103718e-16
1.5987218e-05
-5.6283664e-16
1.5987218e-05
-5.841082e-16
1.5987218e-05
-6.6762495e-16
1.5987218e-05
-5.7166697e-16
1.5987218e-05
-4.0599661e-16
1.5987218e-05
-2.696174e-16
1.5987218e-05
-5.0322318e-16
1.5987218e-05
-8.8645018e-16
1.5987218e-05
-1.3487579e-15
1.5987218e-05
-1.1420826e-15
1.5987218e-05
-4.7641171e-16
1.5987218e-05
3.3423205e-16
1.5987218e-05
6.0769402e-16
1.5987218e-05
2.9603382e-16
1.5987218e-05
-3.6861942e-16
1.5987218e-05
-8.318183e-16
1.5987218e-05
-9.238583e-16
1.5987218e-05
-5.2800511e-16
1.5987218e-05
1.0608712e-16
1.5987218e-05
6.1476778e-16
1.5987218e-05
9.153486e-16
1.5987218e-05
8.329011e-16
1.5987218e-05
6.1739852e-16
1.5987218e-05
4.2403734e-16
1.5987218e-05
2.4681548e-16
1.5987218e-05
-7.5411525e-18
1.5987218e-05
-3.9525092e-16
1.5987218e-05
-7.564499e-16
1.5987218e-05
-9.906467e-16
1.5987218e-05
-8.9202559e-16
1.5987218e-05
-5.9166786e-16
1.5987218e-05
-2.0114482e-16
1.5987218e-05
1.2627049e-16
1.5987218e-05
3.2421407e-16
1.5987218e-05
4.6144604e-16
1.5987218e-05
5.1584346e-16
1.5987218e-05
5.5724813e-16
1.5987218e-05
5.6350353e-16
1.5987218e-05
5.7213729e-16
1.5987218e-05
5.6620757e-16
1.5987218e-05
5.6527052e-16
1.5987218e-05
5.5869672e-16
1.5987218e-05
5.5271588e-16
1.5987218e-05
5.4653018e-16
1.5987218e-05
5.3519302e-16
1.5987218e-05
5.2648011e-16
1.5987218e-05
5.1653168e-16
1.5987218e-05
5.0977445e-16
1.5987218e-05
4.9567841e-16
1.5987218e-05
4.7122119e-16
1.5987218e-05
4.7145914e-16
1.5987218e-05
4.8751701e-16
1.5987218e-05
4.9182687e-16
1.5987218e-05
3.9092683e-16
1.5987218e-05
2.6453595e-16
1.5987218e-05
2.245345e-16
1.5987218e-05
4.2591963e-16
1.5987218e-05
7.2625934e-16
1.5987218e-05
1.0839515e-15
1.5987218e-05
1.1313661e-15
1.5987218e-05
1.0166684e-15
1.5987218e-05
6.4618281e-16
1.5987218e-05
3.1738537e-16
1.5987218e-05
6.8779489e-17
1.5987218e-05
-1.0624738e-16
1.5987218e-05
-2.0686695e-16
1.5987218e-05
-3.1770155e-16
1.5987218e-05
-3.7797538e-16
1.5987218e-05
-4.3053394e-16
1.5987218e-05
-4.4282637e-16
1.5987218e-05
-4.6757056e-16
1.5987218e-05
-4.4443948e-16
1.5987218e-05
-4.6318511e-16
1.5987218e-05
-4.4466675e-16
1.5987218e-05
-4.7119457e-16
1.5987218e-05
-4.4972162e-16
1.5987218e-05
-4.8062465e-16
1.5987218e-05
-4.5546104e-16
1.5987218e-05
-4.8453269e-16
1.5987218e-05
-4.585476e-16
1.5987218e-05
-4.7974467e-16
1.5987218e-05
-4.5726778e-16
1.5987218e-05
-4.7223466e-16
1.5987218e-05
-4.5087195e-16
1.5987218e-05
-4.7461188e-16
1.5987218e-05
-4.5872079e-16
1.5987218e-05
-5.0129286e-16
1.5987218e-05
-4.7095323e-16
1.5987218e-05
-5.1128924e-16
1.5987218e-05
-4.7762582e-16
1.5987218e-05
-5.1850079e-16
1.5987218e-05
-4.8363538e-16
1.5987218e-05
-5.3741663e-16
1.5987218e-05
-5.2744173e-16
1.5987218e-05
-5.3035142e-16
1.5987218e-05
-4.0590353e-16
1.5987218e-05
-3.2187e-16
1.5987218e-05
-3.7580723e-16
1.5987218e-05
-6.5367909e-16
1.5987218e-05
-9.9270131e-16
1.5987218e-05
-1.277766e-15
1.5987218e-05
-1.2599844e-15
1.5987218e-05
-1.0069654e-15
1.5987218e-05
-6.3848892e-16
1.5987218e-05
-2.527939e-16
1.5987218e-05
-3.9528243e-18
1.5987218e-05
2.1710198e-16
1.5987218e-05
3.0440036e-16
1.5987218e-05
4.1532809e-16
1.5987218e-05
4.1872596e-16
1.5987218e-05
4.7222622e-16
1.5987218e-05
4.5302022e-16
1.5987218e-05
4.8472022e-16
1.5987218e-05
4.6865472e-16
1.5987218e-05
4.879415e-16
1.5987218e-05
5.0694411e-16
1.5987218e-05
5.5792379e-16
1.5987218e-05
5.5888156e-16
1.5987218e-05
4.8760312e-16
1.5987218e-05
3.6602443e-16
1.5987218e-05
3.3805274e-16
1.5987218e-05
5.1651075e-16
1.5987218e-05
8.2022293e-16
1.5987218e-05
1.1123192e-15
1.5987218e-05
1.1760684e-15
1.5987218e-05
9.4620205e-16
1.5987218e-05
5.6906939e-16
1.5987218e-05
2.5145584e-16
1.5987218e-05
1.1139815e-16
1.5987218e-05
1.7360394e-17
1.5987218e-05
-1.9197583e-16
1.5987218e-05
-4.8393016e-16
1.5987218e-05
-8.4937525e-16
1.5987218e-05
-9.9657893e-16
1.5987218e-05
-1.0976286e-15
1.5987218e-05
-8.9365765e-16
1.5987218e-05
-5.5272235e-16
1.5987218e-05
5.5362648e-18
1.5987218e-05
5.796381e-16
1.5987218e-05
9.1706764e-16
1.5987218e-05
9.7487489e-16
1.5987218e-05
7.387371e-16
1.5987218e-05
4.2117592e-16
1.5987218e-05
2.1755465e-16
1.5987218e-05
-2.9040577e-17
1.5987218e-05
-3.2782907e-16
1.5987218e-05
-7.6975787e-16
1.5987218e-05
-1.0538599e-15
1.5987218e-05
-1.1905189e-15
1.5987218e-05
-9.8298807e-16
1.5987218e-05
-6.3604712e-16
1.5987218e-05
-2.8986413e-16
1.5987218e-05
1.594713e-17
1.5987218e-05
1.9203708e-16
1.5987218e-05
3.202294e-16
1.5987218e-05
2.7436138e-16
1.5987218e-05
2.3134271e-16
1.5987218e-05
2.5860157e-16
1.5987218e-05
5.1841238e-16
1.5987218e-05
8.2514475e-16
1.5987218e-05
1.0956601e-15
1.5987218e-05
1.0717936e-15
1.5987218e-05
8.5377205e-16
1.5987218e-05
4.2748161e-16
1.5987218e-05
1.22165e-16
1.5987218e-05
-1.464237e-16
1.5987218e-05
-2.3870618e-16
1.5987218e-05
-3.5453534e-16
1.5987218e-05
-3.9510416e-16
1.5987218e-05
-4.8231575e-16
1.5987218e-05
-4.2410257e-16
1.5987218e-05
-3.6264927e-16
1.5987218e-05
-2.4362913e-16
1.5987218e-05
-2.9571616e-16
1.5987218e-05
-4.6424155e-16
1.5987218e-05
-8.113682e-16
1.5987218e-05
-1.0894746e-15
1.5987218e-05
-1.1458186e-15
1.5987218e-05
-8.1704404e-16
1.5987218e-05
-1.5632721e-16
1.5987218e-05
4.9032632e-16
1.5987218e-05
8.9244479e-16
1.5987218e-05
9.8767114e-16
1.5987218e-05
7.5237977e-16
1.5987218e-05
3.9756759e-16
1.5987218e-05
7.5750565e-17
1.5987218e-05
-1.9109996e-16
1.5987218e-05
-3.2067437e-16
1.5987218e-05
-4.2223968e-16
1.5987218e-05
-4.2611673e-16
1.5987218e-05
-4.4670952e-16
1.5987218e-05
-4.2272581e-16
1.5987218e-05
-4.6180728e-16
1.5987218e-05
-4.3840241e-16
1.5987218e-05
-4.8413241e-16
1.5987218e-05
-4.4144361e-16
1.5987218e-05
-4.4264975e-16
1.5987218e-05
-4.1988897e-16
1.5987218e-05
-5.3513324e-16
1.5987218e-05
-5.1921504e-16
1.5987218e-05
-3.1698732e-16
1.5987218e-05
-1.1872624e-16
1.5987218e-05
-5.0691051e-16
1.5987218e-05
-1.0239466e-15
-6.7491748e-16
0.00014027132
0.00033219463
9.2549243e-05
7.5871556e-05
7.0338072e-05
3.0330337e-05
5.9620314e-05
1.4898957e-05
5.4019643e-05
7.4663638e-06
5.0795344e-05
4.4027902e-06
4.901105e-05
2.3763395e-06
4.7964745e-05
1.4156554e-06
4.7384384e-05
7.7185845e-07
4.7052233e-05
4.4628955e-07
4.6872682e-05
2.3798385e-07
4.677453e-05
1.3094056e-07
4.6724187e-05
6.6280477e-08
4.6698685e-05
3.3670818e-08
4.6686925e-05
1.5249618e-08
4.6681893e-05
6.4813919e-09
4.6680252e-05
1.9904285e-09
4.6680058e-05
1.453465e-10
4.6680445e-05
-5.9863946e-10
4.6680961e-05
-7.3727156e-10
4.6681443e-05
-6.7437206e-10
4.6681826e-05
-5.2993864e-10
4.668211e-05
-3.9048634e-10
4.6682309e-05
-2.7191513e-10
4.6682444e-05
-1.8347383e-10
4.6682532e-05
-1.1988112e-10
4.6682589e-05
-7.6678638e-11
4.6682624e-05
-4.7929611e-11
4.6682646e-05
-2.9432466e-11
4.6682659e-05
-1.7720462e-11
4.6682667e-05
-1.0487562e-11
4.6682672e-05
-6.09019e-12
4.6682674e-05
-3.4722343e-12
4.6682676e-05
-1.9361479e-12
4.6682676e-05
-1.0521025e-12
4.6682677e-05
-5.5336321e-13
4.6682677e-05
-2.7885585e-13
4.6682677e-05
-1.3312492e-13
4.6682677e-05
-5.8273933e-14
4.6682677e-05
-2.2450882e-14
4.6682677e-05
-6.2863626e-15
4.6682677e-05
3.3056247e-16
4.6682677e-05
3.80781e-15
4.6682677e-05
5.1514974e-15
4.6682677e-05
4.532386e-15
4.6682677e-05
2.2606021e-15
4.6682677e-05
4.9535637e-16
4.6682677e-05
5.3224199e-16
4.6682677e-05
2.0916975e-15
4.6682677e-05
2.5403435e-15
4.6682677e-05
2.6915285e-15
4.6682677e-05
2.1770849e-15
4.6682677e-05
1.7704268e-15
4.6682677e-05
1.5619638e-15
4.6682677e-05
1.5967516e-15
4.6682677e-05
1.7754315e-15
4.6682677e-05
1.6145959e-15
4.6682677e-05
1.2468887e-15
4.6682677e-05
1.3536462e-15
4.6682677e-05
1.0380668e-15
4.6682677e-05
1.0310033e-15
4.6682677e-05
4.3725676e-16
4.6682677e-05
4.240138e-17
4.6682677e-05
-2.627039e-16
4.6682677e-05
-1.0759042e-16
4.6682677e-05
2.1574492e-16
4.6682677e-05
5.6810644e-16
4.6682677e-05
9.9938598e-16
4.6682677e-05
1.0644606e-15
4.6682677e-05
8.2912071e-16
4.6682677e-05
7.074473e-16
4.6682677e-05
7.7162017e-16
4.6682677e-05
1.5416183e-15
4.6682677e-05
2.1435447e-15
4.6682677e-05
2.5258888e-15
4.6682677e-05
2.2515536e-15
4.6682677e-05
1.5512018e-15
4.6682677e-05
6.5438602e-16
4.6682677e-05
5.3956336e-17
4.6682677e-05
-5.0377216e-16
4.6682677e-05
-6.422029e-16
4.6682677e-05
-9.5620647e-16
4.6682677e-05
-8.9072813e-16
4.6682677e-05
-1.1520365e-15
4.6682677e-05
-9.9898443e-16
4.6682677e-05
-1.258942e-15
4.6682677e-05
-1.0567409e-15
4.6682677e-05
-1.3209098e-15
4.6682677e-05
-1.0754271e-15
4.6682677e-05
-1.3190429e-15
4.6682677e-05
-1.0280294e-15
4.6682677e-05
-1.3033673e-15
4.6682677e-05
-1.0654272e-15
4.6682677e-05
-1.3685318e-15
4.6682677e-05
-9.9360979e-16
4.6682677e-05
-1.2963921e-15
4.6682677e-05
-1.0487374e-15
4.6682677e-05
-1.5482663e-15
4.6682677e-05
-1.024813e-15
4.6682677e-05
-1.0398639e-15
4.6682677e-05
-3.7637145e-16
4.6682677e-05
-1.0129934e-15
4.6682677e-05
-1.7235533e-15
4.6682677e-05
-3.0260584e-15
4.6682677e-05
-2.5433242e-15
4.6682677e-05
-1.4551495e-15
4.6682677e-05
8.8353096e-16
4.6682677e-05
1.4358032e-15
4.6682677e-05
1.0795388e-15
4.6682677e-05
-3.7909205e-16
4.6682677e-05
-1.526304e-15
4.6682677e-05
-1.9908933e-15
4.6682677e-05
-1.2063009e-15
4.6682677e-05
-1.8814016e-16
4.6682677e-05
1.51072e-15
4.6682677e-05
1.8095252e-15
4.6682677e-05
2.0289773e-15
4.6682677e-05
1.3812802e-15
4.6682677e-05
1.1378676e-15
4.6682677e-05
6.6489885e-16
4.6682677e-05
2.3470604e-16
4.6682677e-05
-6.538647e-16
4.6682677e-05
-1.5543e-15
4.6682677e-05
-2.1868806e-15
4.6682677e-05
-2.0161645e-15
4.6682677e-05
-1.4896964e-15
4.6682677e-05
-5.5582348e-16
4.6682677e-05
6.1546842e-17
4.6682677e-05
5.9859915e-16
4.6682677e-05
8.3124509e-16
4.6682677e-05
1.0183968e-15
4.6682677e-05
1.0564677e-15
4.6682677e-05
1.1196629e-15
4.6682677e-05
1.09981e-15
4.6682677e-05
1.1232795e-15
4.6682677e-05
1.0910162e-15
4.6682677e-05
1.1028622e-15
4.6682677e-05
1.069442e-15
4.6682677e-05
1.0761454e-15
4.6682677e-05
1.0383025e-15
4.6682677e-05
1.0348625e-15
4.6682677e-05
1.0029916e-15
4.6682677e-05
1.0070002e-15
4.6682677e-05
9.7318636e-16
4.6682677e-05
9.3153775e-16
4.6682677e-05
9.1119506e-16
4.6682677e-05
9.6159613e-16
4.6682677e-05
1.0009363e-15
4.6682677e-05
8.116253e-16
4.6682677e-05
4.98811e-16
4.6682677e-05
3.6702057e-16
4.6682677e-05
6.8638437e-16
4.6682677e-05
1.4812601e-15
4.6682677e-05
2.2693407e-15
4.6682677e-05
2.5173189e-15
4.6682677e-05
2.3201047e-15
4.6682677e-05
1.5038868e-15
4.6682677e-05
8.3805176e-16
4.6682677e-05
2.3063046e-16
4.6682677e-05
-1.282451e-16
4.6682677e-05
-3.6239602e-16
4.6682677e-05
-5.8052293e-16
4.6682677e-05
-7.0100357e-16
4.6682677e-05
-8.0271247e-16
4.6682677e-05
-8.7129735e-16
4.6682677e-05
-8.8002926e-16
4.6682677e-05
-8.7710097e-16
4.6682677e-05
-8.8053788e-16
4.6682677e-05
-8.8457167e-16
4.6682677e-05
-9.0087862e-16
4.6682677e-05
-8.9459772e-16
4.6682677e-05
-9.1649885e-16
4.6682677e-05
-9.0354073e-16
4.6682677e-05
-9.2538647e-16
4.6682677e-05
-9.0347217e-16
4.6682677e-05
-9.1644558e-16
4.6682677e-05
-8.9109935e-16
4.6682677e-05
-9.0611364e-16
4.6682677e-05
-8.7245924e-16
4.6682677e-05
-9.0787237e-16
4.6682677e-05
-8.8758716e-16
4.6682677e-05
-9.540741e-16
4.6682677e-05
-9.196478e-16
4.6682677e-05
-9.5970112e-16
4.6682677e-05
-9.3328469e-16
4.6682677e-05
-9.6325587e-16
4.6682677e-05
-9.3744783e-16
4.6682677e-05
-9.8528179e-16
4.6682677e-05
-1.0282449e-15
4.6682677e-05
-1.0234728e-15
4.6682677e-05
-7.6484372e-16
4.6682677e-05
-5.3864472e-16
4.6682677e-05
-5.9776547e-16
4.6682677e-05
-1.1118858e-15
4.6682677e-05
-1.9977967e-15
4.6682677e-05
-2.6576098e-15
4.6682677e-05
-2.699394e-15
4.6682677e-05
-2.2305415e-15
4.6682677e-05
-1.3994171e-15
4.6682677e-05
-6.2296701e-16
4.6682677e-05
-6.52644e-17
4.6682677e-05
3.6389309e-16
4.6682677e-05
5.7037189e-16
4.6682677e-05
7.7425137e-16
4.6682677e-05
7.8105003e-16
4.6682677e-05
8.7698622e-16
4.6682677e-05
8.3292698e-16
4.6682677e-05
9.0695233e-16
4.6682677e-05
8.5976436e-16
4.6682677e-05
9.2010681e-16
4.6682677e-05
9.1559749e-16
4.6682677e-05
1.0753108e-15
4.6682677e-05
1.0980355e-15
4.6682677e-05
9.9193988e-16
4.6682677e-05
6.6641592e-16
4.6682677e-05
5.9346571e-16
4.6682677e-05
8.9374078e-16
4.6682677e-05
1.6211626e-15
4.6682677e-05
2.3256944e-15
4.6682677e-05
2.5482059e-15
4.6682677e-05
2.1397985e-15
4.6682677e-05
1.3140072e-15
4.6682677e-05
6.5199899e-16
4.6682677e-05
3.4934191e-16
4.6682677e-05
1.8999945e-16
4.6682677e-05
-2.0235587e-16
4.6682677e-05
-9.2089376e-16
4.6682677e-05
-1.7087325e-15
4.6682677e-05
-2.1996026e-15
4.6682677e-05
-2.408558e-15
4.6682677e-05
-2.045654e-15
4.6682677e-05
-1.4142071e-15
4.6682677e-05
-1.2323785e-16
4.6682677e-05
1.0531068e-15
4.6682677e-05
2.0375989e-15
4.6682677e-05
2.2154443e-15
4.6682677e-05
1.7127418e-15
4.6682677e-05
1.0822972e-15
4.6682677e-05
6.0610121e-16
4.6682677e-05
1.8888859e-16
4.6682677e-05
-5.1915152e-16
4.6682677e-05
-1.4091025e-15
4.6682677e-05
-2.2351812e-15
4.6682677e-05
-2.5597507e-15
4.6682677e-05
-2.1745739e-15
4.6682677e-05
-1.4819662e-15
4.6682677e-05
-6.5843326e-16
4.6682677e-05
-4.1345433e-17
4.6682677e-05
4.0744478e-16
4.6682677e-05
6.847173e-16
4.6682677e-05
5.9526181e-16
4.6682677e-05
4.3447874e-16
4.6682677e-05
4.2055463e-16
4.6682677e-05
9.097092e-16
4.6682677e-05
1.6409557e-15
4.6682677e-05
2.3112122e-15
4.6682677e-05
2.3512564e-15
4.6682677e-05
1.9053778e-15
4.6682677e-05
1.0388179e-15
4.6682677e-05
3.2825876e-16
4.6682677e-05
-2.0914468e-16
4.6682677e-05
-4.6554198e-16
4.6682677e-05
-6.6003237e-16
4.6682677e-05
-7.944276e-16
4.6682677e-05
-9.3509849e-16
4.6682677e-05
-9.0106905e-16
4.6682677e-05
-7.0374161e-16
4.6682677e-05
-4.5820511e-16
4.6682677e-05
-4.7373523e-16
4.6682677e-05
-8.589207e-16
4.6682677e-05
-1.6290067e-15
4.6682677e-05
-2.3300602e-15
4.6682677e-05
-2.619793e-15
4.6682677e-05
-2.0004109e-15
4.6682677e-05
-5.811178e-16
4.6682677e-05
8.4762679e-16
4.6682677e-05
1.9252398e-15
4.6682677e-05
2.190104e-15
4.6682677e-05
1.732255e-15
4.6682677e-05
1.0315044e-15
4.6682677e-05
2.6614363e-16
4.6682677e-05
-2.6561748e-16
4.6682677e-05
-6.1942671e-16
4.6682677e-05
-8.0634607e-16
4.6682677e-05
-8.5569232e-16
4.6682677e-05
-8.8634441e-16
4.6682677e-05
-8.6936609e-16
4.6682677e-05
-8.8548466e-16
4.6682677e-05
-8.9213955e-16
4.6682677e-05
-9.3062839e-16
4.6682677e-05
-9.0802459e-16
4.6682677e-05
-8.4910153e-16
4.6682677e-05
-8.190998e-16
4.6682677e-05
-1.006838e-15
4.6682677e-05
-1.1183092e-15
4.6682677e-05
-6.8799024e-16
4.6682677e-05
-8.9506318e-17
4.6682677e-05
-6.9523366e-16
4.6682677e-05
-2.2202693e-15
-1.7852949e-15
0.00019469214
0.00040416928
0.00014360962
0.00012695409
0.00011230147
6.1638481e-05
9.6619295e-05
3.0581136e-05
8.7762221e-05
1.6323436e-05
8.2755406e-05
9.4096033e-06
7.9871701e-05
5.2600427e-06
7.8206034e-05
3.0813212e-06
7.7256668e-05
1.7212221e-06
7.6718195e-05
9.8476162e-07
7.6420462e-05
5.3571482e-07
7.6258218e-05
2.9318397e-07
7.6172993e-05
1.5150506e-07
7.61296e-05
7.7063601e-08
7.6108851e-05
3.5998491e-08
7.6099695e-05
1.5637246e-08
7.6096324e-05
5.3616223e-09
7.6095587e-05
8.8247222e-10
7.6095937e-05
-9.4761397e-10
7.6096611e-05
-1.4116992e-09
7.609729e-05
-1.3536068e-09
7.6097854e-05
-1.0933744e-09
7.609828e-05
-8.1663675e-10
7.6098584e-05
-5.7545473e-10
7.6098791e-05
-3.911555e-10
7.6098929e-05
-2.5746305e-10
7.6099018e-05
-1.6554119e-10
7.6099074e-05
-1.0403952e-10
7.6099108e-05
-6.4166667e-11
7.609913e-05
-3.8815613e-11
7.6099142e-05
-2.3068395e-11
7.609915e-05
-1.3452555e-11
7.6099154e-05
-7.6975058e-12
7.6099156e-05
-4.3091056e-12
7.6099157e-05
-2.3528043e-12
7.6099158e-05
-1.2454239e-12
7.6099158e-05
-6.3379959e-13
7.6099159e-05
-3.0604237e-13
7.6099159e-05
-1.3645481e-13
7.6099159e-05
-5.3163187e-14
7.6099159e-05
-1.4437447e-14
7.6099159e-05
1.9707239e-15
7.6099159e-05
8.6733021e-15
7.6099159e-05
1.011075e-14
7.6099159e-05
8.3744332e-15
7.6099159e-05
5.1406558e-15
7.6099159e-05
2.8109812e-15
7.6099159e-05
2.4055735e-15
7.6099159e-05
3.3057697e-15
7.6099159e-05
3.6367518e-15
7.6099159e-05
3.3475919e-15
7.6099159e-05
2.7598006e-15
7.6099159e-05
2.1342298e-15
7.6099159e-05
1.9980163e-15
7.6099159e-05
2.0256925e-15
7.6099159e-05
2.3009273e-15
7.6099159e-05
2.1195896e-15
7.6099159e-05
1.9508139e-15
7.6099159e-05
1.7165967e-15
7.6099159e-05
1.5419104e-15
7.6099159e-05
1.2427005e-15
7.6099159e-05
7.7138858e-16
7.6099159e-05
2.4936343e-16
7.6099159e-05
1.7225393e-17
7.6099159e-05
6.9891279e-18
7.6099159e-05
3.8171797e-16
7.6099159e-05
6.8307226e-16
7.6099159e-05
1.2139503e-15
7.6099159e-05
1.2844142e-15
7.6099159e-05
1.285636e-15
7.6099159e-05
1.1188509e-15
7.6099159e-05
1.4466289e-15
7.6099159e-05
1.926888e-15
7.6099159e-05
2.4962306e-15
7.6099159e-05
2.4126037e-15
7.6099159e-05
2.0205934e-15
7.6099159e-05
1.0387504e-15
7.6099159e-05
1.8592285e-16
7.6099159e-05
-5.4616912e-16
7.6099159e-05
-1.0031794e-15
7.6099159e-05
-1.2597228e-15
7.6099159e-05
-1.447665e-15
7.6099159e-05
-1.4995589e-15
7.6099159e-05
-1.6256952e-15
7.6099159e-05
-1.5929688e-15
7.6099159e-05
-1.7143203e-15
7.6099159e-05
-1.6293105e-15
7.6099159e-05
-1.748581e-15
7.6099159e-05
-1.6131276e-15
7.6099159e-05
-1.7086904e-15
7.6099159e-05
-1.5349502e-15
7.6099159e-05
-1.6760016e-15
7.6099159e-05
-1.5454937e-15
7.6099159e-05
-1.7113534e-15
7.6099159e-05
-1.4665698e-15
7.6099159e-05
-1.672145e-15
7.6099159e-05
-1.5680662e-15
7.6099159e-05
-1.9268523e-15
7.6099159e-05
-1.5377968e-15
7.6099159e-05
-1.4128089e-15
7.6099159e-05
-9.8129419e-16
7.6099159e-05
-1.6116249e-15
7.6099159e-05
-2.2399718e-15
7.6099159e-05
-3.1600932e-15
7.6099159e-05
-2.3634166e-15
7.6099159e-05
-1.0028073e-15
7.6099159e-05
9.0994857e-16
7.6099159e-05
1.2279254e-15
7.6099159e-05
5.625143e-16
7.6099159e-05
-8.5734468e-16
7.6099159e-05
-1.7215912e-15
7.6099159e-05
-1.8097902e-15
7.6099159e-05
-7.9054242e-16
7.6099159e-05
4.4512315e-16
7.6099159e-05
1.7136971e-15
7.6099159e-05
1.9823087e-15
7.6099159e-05
1.779034e-15
7.6099159e-05
1.1068791e-15
7.6099159e-05
6.9938912e-16
7.6099159e-05
2.0975677e-16
7.6099159e-05
-3.1764987e-16
7.6099159e-05
-1.1645373e-15
7.6099159e-05
-1.866828e-15
7.6099159e-05
-2.2358874e-15
7.6099159e-05
-1.8169287e-15
7.6099159e-05
-1.0669971e-15
7.6099159e-05
-1.0653692e-16
7.6099159e-05
5.9885771e-16
7.6099159e-05
1.0891989e-15
7.6099159e-05
1.3624219e-15
7.6099159e-05
1.5067034e-15
7.6099159e-05
1.5803076e-15
7.6099159e-05
1.6053318e-15
7.6099159e-05
1.615495e-15
7.6099159e-05
1.6014517e-15
7.6099159e-05
1.5949778e-15
7.6099159e-05
1.5725771e-15
7.6099159e-05
1.5619818e-15
7.6099159e-05
1.534996e-15
7.6099159e-05
1.5168414e-15
7.6099159e-05
1.4835234e-15
7.6099159e-05
1.4709253e-15
7.6099159e-05
1.440616e-15
7.6099159e-05
1.4204874e-15
7.6099159e-05
1.3488754e-15
7.6099159e-05
1.3547236e-15
7.6099159e-05
1.3682156e-15
7.6099159e-05
1.3870034e-15
7.6099159e-05
1.1505016e-15
7.6099159e-05
9.0329568e-16
7.6099159e-05
8.3755297e-16
7.6099159e-05
1.2681033e-15
7.6099159e-05
1.9171327e-15
7.6099159e-05
2.5763247e-15
7.6099159e-05
2.5278183e-15
7.6099159e-05
2.1470084e-15
7.6099159e-05
1.2297211e-15
7.6099159e-05
5.238964e-16
7.6099159e-05
-7.5197085e-17
7.6099159e-05
-4.5306775e-16
7.6099159e-05
-7.2016591e-16
7.6099159e-05
-9.7581419e-16
7.6099159e-05
-1.1436422e-15
7.6099159e-05
-1.2620403e-15
7.6099159e-05
-1.3287391e-15
7.6099159e-05
-1.3570262e-15
7.6099159e-05
-1.3287207e-15
7.6099159e-05
-1.3435617e-15
7.6099159e-05
-1.3239267e-15
7.6099159e-05
-1.360126e-15
7.6099159e-05
-1.3326504e-15
7.6099159e-05
-1.3796709e-15
7.6099159e-05
-1.3435082e-15
7.6099159e-05
-1.3920243e-15
7.6099159e-05
-1.3505688e-15
7.6099159e-05
-1.389369e-15
7.6099159e-05
-1.3481523e-15
7.6099159e-05
-1.3807594e-15
7.6099159e-05
-1.3354429e-15
7.6099159e-05
-1.3900439e-15
7.6099159e-05
-1.3504476e-15
7.6099159e-05
-1.4388742e-15
7.6099159e-05
-1.368239e-15
7.6099159e-05
-1.4437951e-15
7.6099159e-05
-1.3763824e-15
7.6099159e-05
-1.4501843e-15
7.6099159e-05
-1.3789515e-15
7.6099159e-05
-1.4721095e-15
7.6099159e-05
-1.4479184e-15
7.6099159e-05
-1.4408687e-15
7.6099159e-05
-1.164028e-15
7.6099159e-05
-1.0120258e-15
7.6099159e-05
-1.1457871e-15
7.6099159e-05
-1.7130447e-15
7.6099159e-05
-2.4023155e-15
7.6099159e-05
-2.8407943e-15
7.6099159e-05
-2.6055031e-15
7.6099159e-05
-1.9197838e-15
7.6099159e-05
-1.025468e-15
7.6099159e-05
-1.7893226e-16
7.6099159e-05
3.7205776e-16
7.6099159e-05
8.313047e-16
7.6099159e-05
1.0133747e-15
7.6099159e-05
1.2442061e-15
7.6099159e-05
1.2291313e-15
7.6099159e-05
1.3416401e-15
7.6099159e-05
1.2736813e-15
7.6099159e-05
1.3509102e-15
7.6099159e-05
1.2931767e-15
7.6099159e-05
1.358591e-15
7.6099159e-05
1.3740849e-15
7.6099159e-05
1.5155473e-15
7.6099159e-05
1.5005482e-15
7.6099159e-05
1.3714686e-15
7.6099159e-05
1.0974385e-15
7.6099159e-05
1.0900909e-15
7.6099159e-05
1.459805e-15
7.6099159e-05
2.1025363e-15
7.6099159e-05
2.592139e-15
7.6099159e-05
2.5422864e-15
7.6099159e-05
1.8813515e-15
7.6099159e-05
9.6404873e-16
7.6099159e-05
2.4314256e-16
7.6099159e-05
-9.1801461e-17
7.6099159e-05
-3.1757988e-16
7.6099159e-05
-7.8927295e-16
7.6099159e-05
-1.4384771e-15
7.6099159e-05
-2.1367984e-15
7.6099159e-05
-2.3429515e-15
7.6099159e-05
-2.3654904e-15
7.6099159e-05
-1.7299565e-15
7.6099159e-05
-9.1358228e-16
7.6099159e-05
4.0570531e-16
7.6099159e-05
1.5556968e-15
7.6099159e-05
2.2224565e-15
7.6099159e-05
2.164067e-15
7.6099159e-05
1.4878177e-15
7.6099159e-05
7.2847724e-16
7.6099159e-05
2.1055487e-16
7.6099159e-05
-3.4409101e-16
7.6099159e-05
-1.0428035e-15
7.6099159e-05
-1.9315935e-15
7.6099159e-05
-2.4662505e-15
7.6099159e-05
-2.5709696e-15
7.6099159e-05
-1.9350676e-15
7.6099159e-05
-1.0992347e-15
7.6099159e-05
-2.5896173e-16
7.6099159e-05
4.034451e-16
7.6099159e-05
8.0086638e-16
7.6099159e-05
1.0555771e-15
7.6099159e-05
9.5051102e-16
7.6099159e-05
8.6227728e-16
7.6099159e-05
9.3673307e-16
7.6099159e-05
1.47758e-15
7.6099159e-05
2.0763644e-15
7.6099159e-05
2.5239487e-15
7.6099159e-05
2.2878086e-15
7.6099159e-05
1.640054e-15
7.6099159e-05
6.403966e-16
7.6099159e-05
-7.7031208e-17
7.6099159e-05
-6.5504365e-16
7.6099159e-05
-8.7474475e-16
7.6099159e-05
-1.1075571e-15
7.6099159e-05
-1.2079087e-15
7.6099159e-05
-1.363963e-15
7.6099159e-05
-1.2545772e-15
7.6099159e-05
-1.101803e-15
7.6099159e-05
-8.855973e-16
7.6099159e-05
-1.0068604e-15
7.6099159e-05
-1.3976072e-15
7.6099159e-05
-2.088641e-15
7.6099159e-05
-2.5559339e-15
7.6099159e-05
-2.4914513e-15
7.6099159e-05
-1.6156023e-15
7.6099159e-05
-1.0688441e-16
7.6099159e-05
1.2578588e-15
7.6099159e-05
2.0531819e-15
7.6099159e-05
2.0790475e-15
7.6099159e-05
1.4247991e-15
7.6099159e-05
6.0279694e-16
7.6099159e-05
-1.5899583e-16
7.6099159e-05
-7.2453147e-16
7.6099159e-05
-1.0299822e-15
7.6099159e-05
-1.2335862e-15
7.6099159e-05
-1.2586662e-15
7.6099159e-05
-1.3073083e-15
7.6099159e-05
-1.2736572e-15
7.6099159e-05
-1.3344727e-15
7.6099159e-05
-1.3038282e-15
7.6099159e-05
-1.3725228e-15
7.6099159e-05
-1.2985706e-15
7.6099159e-05
-1.2787156e-15
7.6099159e-05
-1.2462904e-15
7.6099159e-05
-1.4630338e-15
7.6099159e-05
-1.4433998e-15
7.6099159e-05
-1.0080624e-15
7.6099159e-05
-6.0180008e-16
7.6099159e-05
-1.4015269e-15
7.6099159e-05
-2.5274819e-15
-1.6678959e-15
0.00023312986
0.00043770623
0.00018548527
0.00017459869
0.00015018421
9.6939542e-05
0.0001310242
4.9741146e-05
0.00011965162
2.7696009e-05
0.0001131446
1.5916618e-05
0.00010931814
9.0864962e-06
0.00010710183
5.2976253e-06
0.0001058215
3.0015544e-06
0.00010509347
1.7127864e-06
0.00010468612
9.4305762e-07
0.00010446306
5.1624012e-07
0.00010434425
2.7031782e-07
0.00010428311
1.3819838e-07
0.00010425319
6.5917963e-08
0.00010423959
2.9237041e-08
0.0001042342
1.0753741e-08
0.00010423268
2.4049469e-09
0.00010423281
-1.0813296e-09
0.00010423352
-2.1172402e-09
0.00010423431
-2.1452054e-09
0.000104235
-1.7802983e-09
0.00010423553
-1.3486822e-09
0.00010423592
-9.607195e-10
0.00010423618
-6.5776462e-10
0.00010423636
-4.357495e-10
0.00010423648
-2.8155506e-10
0.00010423655
-1.7779003e-10
0.0001042366
-1.1009396e-10
0.00010423662
-6.6870493e-11
0.00010423664
-3.9889886e-11
0.00010423665
-2.3351973e-11
0.00010423666
-1.3411568e-11
0.00010423666
-7.5392669e-12
0.00010423666
-4.1362682e-12
0.00010423666
-2.2032042e-12
0.00010423666
-1.1301388e-12
0.00010423666
-5.5209361e-13
0.00010423666
-2.5071418e-13
0.00010423666
-1.0065965e-13
0.00010423666
-2.9186798e-14
0.00010423666
2.0397675e-15
0.00010423666
1.4402554e-14
0.00010423666
1.6055604e-14
0.00010423666
1.2895112e-14
0.00010423666
8.5052417e-15
0.00010423666
5.7133748e-15
0.00010423666
4.7739005e-15
0.00010423666
5.474959e-15
0.00010423666
5.1942737e-15
0.00010423666
4.7637232e-15
0.00010423666
3.7795965e-15
0.00010423666
3.1721548e-15
0.00010423666
3.0558618e-15
0.00010423666
3.2534902e-15
0.00010423666
3.4566072e-15
0.00010423666
3.2384568e-15
0.00010423666
2.868895e-15
0.00010423666
2.7849351e-15
0.00010423666
2.2327158e-15
0.00010423666
2.0582999e-15
0.00010423666
1.4808446e-15
0.00010423666
1.131238e-15
0.00010423666
8.0926547e-16
0.00010423666
8.4493263e-16
0.00010423666
1.1006895e-15
0.00010423666
1.3802342e-15
0.00010423666
1.8650297e-15
0.00010423666
1.9720866e-15
0.00010423666
2.0315387e-15
0.00010423666
2.2530746e-15
0.00010423666
2.4880914e-15
0.00010423666
2.9525903e-15
0.00010423666
2.8708552e-15
0.00010423666
2.2800884e-15
0.00010423666
1.1724578e-15
0.00010423666
-1.3545002e-17
0.00010423666
-1.0375374e-15
0.00010423666
-1.6553228e-15
0.00010423666
-2.1878695e-15
0.00010423666
-2.2824695e-15
0.00010423666
-2.5689121e-15
0.00010423666
-2.4462835e-15
0.00010423666
-2.7004806e-15
0.00010423666
-2.4840965e-15
0.00010423666
-2.7576762e-15
0.00010423666
-2.4721649e-15
0.00010423666
-2.7479359e-15
0.00010423666
-2.3922669e-15
0.00010423666
-2.6471195e-15
0.00010423666
-2.2583545e-15
0.00010423666
-2.5802241e-15
0.00010423666
-2.2270175e-15
0.00010423666
-2.5541504e-15
0.00010423666
-2.1072132e-15
0.00010423666
-2.5825936e-15
0.00010423666
-2.2981366e-15
0.00010423666
-2.8500631e-15
0.00010423666
-2.1715849e-15
0.00010423666
-2.470547e-15
0.00010423666
-2.0625823e-15
0.00010423666
-2.9869563e-15
0.00010423666
-3.1476933e-15
0.00010423666
-3.4124373e-15
0.00010423666
-1.4787198e-15
0.00010423666
-1.4672118e-16
0.00010423666
1.5894806e-15
0.00010423666
8.9924519e-16
0.00010423666
-5.6280925e-17
0.00010423666
-1.4262369e-15
0.00010423666
-1.6498238e-15
0.00010423666
-1.029752e-15
0.00010423666
5.0474864e-16
0.00010423666
1.4695546e-15
0.00010423666
2.6381404e-15
0.00010423666
1.8943405e-15
0.00010423666
1.3433979e-15
0.00010423666
1.7847428e-16
0.00010423666
-2.5047249e-16
0.00010423666
-9.4658177e-16
0.00010423666
-1.4671308e-15
0.00010423666
-2.2229323e-15
0.00010423666
-2.4989029e-15
0.00010423666
-2.2985632e-15
0.00010423666
-1.2022011e-15
0.00010423666