/*--------------------------------*- C++ -*----------------------------------*\
| =========                 |                                                 |
| \\      /  F ield         | OpenFOAM: The Open Source CFD Toolbox           |
|  \\    /   O peration     | Version:  2206                                  |
|   \\  /    A nd           | Website:  www.openfoam.com                      |
|    \\/     M anipulation  |                                                 |
\*---------------------------------------------------------------------------*/
FoamFile
{
    version     2.0;
    format      ascii;
    arch        "LSB;label=32;scalar=64";
    class       volVectorField;
    location    "19";
    object      U;
}
// * * * * * * * * * * * * * * * * * * * * * * * * * * * * * * * * * * * * * //

dimensions      [0 1 -1 0 0 0 0];

internalField   nonuniform List<vector> 
15000
(
(0.15962853 0.053997677 0)
(0.11557193 0.0064916402 0)
(0.06425136 0.0014144214 0)
(0.055918599 0.0007496025 0)
(0.047595817 0.00028827046 0)
(0.0447088 0.00019884497 0)
(0.042412495 9.0523992e-05 0)
(0.041406638 6.0130449e-05 0)
(0.040707476 2.8982374e-05 0)
(0.04037699 1.8022564e-05 0)
(0.040167797 8.6644124e-06 0)
(0.04006866 4.9972765e-06 0)
(0.040011054 2.2684818e-06 0)
(0.039985308 1.1742346e-06 0)
(0.039971973 4.468345e-07 0)
(0.039967049 1.738853e-07 0)
(0.03996518 1.4006062e-08 0)
(0.039965128 -3.0320911e-08 0)
(0.039965544 -4.8800055e-08 0)
(0.039966152 -4.335159e-08 0)
(0.03996668 -3.5822387e-08 0)
(0.039967111 -2.6080045e-08 0)
(0.039967422 -1.8552063e-08 0)
(0.039967642 -1.2446719e-08 0)
(0.03996779 -8.2233911e-09 0)
(0.039967887 -5.2433343e-09 0)
(0.039967949 -3.2998619e-09 0)
(0.039967988 -2.0240347e-09 0)
(0.039968012 -1.2250906e-09 0)
(0.039968026 -7.2513913e-10 0)
(0.039968035 -4.2308196e-10 0)
(0.03996804 -2.4178532e-10 0)
(0.039968042 -1.3602115e-10 0)
(0.039968044 -7.465187e-11 0)
(0.039968045 -3.983273e-11 0)
(0.039968045 -2.0377576e-11 0)
(0.039968045 -9.8854525e-12 0)
(0.039968046 -4.4925295e-12 0)
(0.039968046 -1.8620367e-12 0)
(0.039968046 -7.350535e-13 0)
(0.039968046 -2.565351e-13 0)
(0.039968046 -6.0643382e-14 0)
(0.039968046 1.489839e-13 0)
(0.039968046 2.8915864e-13 0)
(0.039968046 2.3316053e-13 0)
(0.039968046 3.3637547e-14 0)
(0.039968046 -9.8512184e-14 0)
(0.039968046 -2.1524103e-14 0)
(0.039968046 1.5028611e-13 0)
(0.039968046 2.6151392e-13 0)
(0.039968046 2.579283e-13 0)
(0.039968046 2.3003027e-13 0)
(0.039968046 1.630393e-13 0)
(0.039968046 1.5843662e-13 0)
(0.039968046 1.5703718e-13 0)
(0.039968046 2.0254094e-13 0)
(0.039968046 1.8434696e-13 0)
(0.039968046 1.8384338e-13 0)
(0.039968046 1.4230433e-13 0)
(0.039968046 1.4273921e-13 0)
(0.039968046 9.8503584e-14 0)
(0.039968046 5.3940831e-14 0)
(0.039968046 -1.1926612e-14 0)
(0.039968046 -3.046765e-14 0)
(0.039968046 -3.4524415e-14 0)
(0.039968046 1.5297043e-14 0)
(0.039968046 4.8689341e-14 0)
(0.039968046 1.1310456e-13 0)
(0.039968046 1.1596276e-13 0)
(0.039968046 1.156568e-13 0)
(0.039968046 7.3401245e-14 0)
(0.039968046 1.2462478e-13 0)
(0.039968046 1.7380977e-13 0)
(0.039968046 2.7494522e-13 0)
(0.039968046 2.8500178e-13 0)
(0.039968046 2.7572813e-13 0)
(0.039968046 1.6899286e-13 0)
(0.039968046 8.1489568e-14 0)
(0.039968046 -9.3928756e-15 0)
(0.039968046 -5.2965058e-14 0)
(0.039968046 -9.3005969e-14 0)
(0.039968046 -1.0493271e-13 0)
(0.039968046 -1.2271211e-13 0)
(0.039968046 -1.2667837e-13 0)
(0.039968046 -1.3623249e-13 0)
(0.039968046 -1.3915589e-13 0)
(0.039968046 -1.4366501e-13 0)
(0.039968046 -1.4609348e-13 0)
(0.039968046 -1.4593701e-13 0)
(0.039968046 -1.447676e-13 0)
(0.039968046 -1.4041756e-13 0)
(0.039968046 -1.4363967e-13 0)
(0.039968046 -1.4437273e-13 0)
(0.039968046 -1.4954951e-13 0)
(0.039968046 -1.351085e-13 0)
(0.039968046 -1.4098111e-13 0)
(0.039968046 -1.4316422e-13 0)
(0.039968046 -1.6891153e-13 0)
(0.039968046 -1.4027022e-13 0)
(0.039968046 -1.0046208e-13 0)
(0.039968046 -5.7558981e-14 0)
(0.039968046 -1.2096929e-13 0)
(0.039968046 -2.230497e-13 0)
(0.039968046 -3.5393194e-13 0)
(0.039968046 -3.0730892e-13 0)
(0.039968046 -1.3824787e-13 0)
(0.039968046 8.6795546e-14 0)
(0.039968046 1.6410639e-13 0)
(0.039968046 8.8855715e-14 0)
(0.039968046 -8.8658754e-14 0)
(0.039968046 -2.1819435e-13 0)
(0.039968046 -2.5208967e-13 0)
(0.039968046 -1.520511e-13 0)
(0.039968046 1.1985376e-14 0)
(0.039968046 1.5677852e-13 0)
(0.039968046 2.3800503e-13 0)
(0.039968046 2.262158e-13 0)
(0.039968046 1.7056497e-13 0)
(0.039968046 1.2312987e-13 0)
(0.039968046 7.6437368e-14 0)
(0.039968046 1.1124234e-14 0)
(0.039968046 -9.3306119e-14 0)
(0.039968046 -1.9302227e-13 0)
(0.039968046 -2.6007149e-13 0)
(0.039968046 -2.4105566e-13 0)
(0.039968046 -1.6678429e-13 0)
(0.039968046 -6.3966248e-14 0)
(0.039968046 2.1278778e-14 0)
(0.039968046 7.5315945e-14 0)
(0.039968046 1.1094972e-13 0)
(0.039968046 1.2637695e-13 0)
(0.039968046 1.3666428e-13 0)
(0.039968046 1.3903743e-13 0)
(0.039968046 1.4088978e-13 0)
(0.039968046 1.3992773e-13 0)
(0.039968046 1.3935335e-13 0)
(0.039968046 1.381901e-13 0)
(0.039968046 1.363229e-13 0)
(0.039968046 1.3516056e-13 0)
(0.039968046 1.3201779e-13 0)
(0.039968046 1.3006081e-13 0)
(0.039968046 1.2727804e-13 0)
(0.039968046 1.2602884e-13 0)
(0.039968046 1.2227511e-13 0)
(0.039968046 1.1606334e-13 0)
(0.039968046 1.1568347e-13 0)
(0.039968046 1.2046803e-13 0)
(0.039968046 1.2231829e-13 0)
(0.039968046 9.6327087e-14 0)
(0.039968046 6.1370152e-14 0)
(0.039968046 4.8784244e-14 0)
(0.039968046 9.9970579e-14 0)
(0.039968046 1.8280191e-13 0)
(0.039968046 2.7977234e-13 0)
(0.039968046 3.0081639e-13 0)
(0.039968046 2.756214e-13 0)
(0.039968046 1.8024738e-13 0)
(0.039968046 9.4624566e-14 0)
(0.039968046 2.7875261e-14 0)
(0.039968046 -1.7934999e-14 0)
(0.039968046 -4.4467109e-14 0)
(0.039968046 -7.3207579e-14 0)
(0.039968046 -8.8644853e-14 0)
(0.039968046 -1.0266449e-13 0)
(0.039968046 -1.0663286e-13 0)
(0.039968046 -1.129792e-13 0)
(0.039968046 -1.0756515e-13 0)
(0.039968046 -1.1243161e-13 0)
(0.039968046 -1.0818406e-13 0)
(0.039968046 -1.1486432e-13 0)
(0.039968046 -1.094876e-13 0)
(0.039968046 -1.1725203e-13 0)
(0.039968046 -1.111523e-13 0)
(0.039968046 -1.1844715e-13 0)
(0.039968046 -1.1183956e-13 0)
(0.039968046 -1.1700788e-13 0)
(0.039968046 -1.1113833e-13 0)
(0.039968046 -1.1488583e-13 0)
(0.039968046 -1.0922237e-13 0)
(0.039968046 -1.1544716e-13 0)
(0.039968046 -1.1141548e-13 0)
(0.039968046 -1.2267976e-13 0)
(0.039968046 -1.1514851e-13 0)
(0.039968046 -1.2558459e-13 0)
(0.039968046 -1.1729114e-13 0)
(0.039968046 -1.275072e-13 0)
(0.039968046 -1.1905753e-13 0)
(0.039968046 -1.3254252e-13 0)
(0.039968046 -1.3104798e-13 0)
(0.039968046 -1.3220572e-13 0)
(0.039968046 -9.9464249e-14 0)
(0.039968046 -7.5797835e-14 0)
(0.039968046 -8.8421272e-14 0)
(0.039968046 -1.6175448e-13 0)
(0.039968046 -2.5588764e-13 0)
(0.039968046 -3.3606836e-13 0)
(0.039968046 -3.3968296e-13 0)
(0.039968046 -2.7846474e-13 0)
(0.039968046 -1.8263973e-13 0)
(0.039968046 -8.1071258e-14 0)
(0.039968046 -1.4281775e-14 0)
(0.039968046 4.4615354e-14 0)
(0.039968046 6.8957614e-14 0)
(0.039968046 9.9085195e-14 0)
(0.039968046 1.0061984e-13 0)
(0.039968046 1.1539962e-13 0)
(0.039968046 1.1092564e-13 0)
(0.039968046 1.1998088e-13 0)
(0.039968046 1.1577186e-13 0)
(0.039968046 1.2117917e-13 0)
(0.039968046 1.2557123e-13 0)
(0.039968046 1.3986442e-13 0)
(0.039968046 1.4052224e-13 0)
(0.039968046 1.2224076e-13 0)
(0.039968046 8.8475654e-14 0)
(0.039968046 7.9614151e-14 0)
(0.039968046 1.2540701e-13 0)
(0.039968046 2.0794137e-13 0)
(0.039968046 2.8898035e-13 0)
(0.039968046 3.1347007e-13 0)
(0.039968046 2.5928649e-13 0)
(0.039968046 1.6180486e-13 0)
(0.039968046 7.875141e-14 0)
(0.039968046 4.1864194e-14 0)
(0.039968046 1.8208639e-14 0)
(0.039968046 -3.6163046e-14 0)
(0.039968046 -1.1598676e-13 0)
(0.039968046 -2.1476719e-13 0)
(0.039968046 -2.6013305e-13 0)
(0.039968046 -2.9258371e-13 0)
(0.039968046 -2.4513933e-13 0)
(0.039968046 -1.5990566e-13 0)
(0.039968046 -1.1335719e-14 0)
(0.039968046 1.4159533e-13 0)
(0.039968046 2.3754355e-13 0)
(0.039968046 2.5927098e-13 0)
(0.039968046 2.0122261e-13 0)
(0.039968046 1.1999577e-13 0)
(0.039968046 6.6926291e-14 0)
(0.039968046 4.2940877e-15 0)
(0.039968046 -7.5751273e-14 0)
(0.039968046 -1.9324813e-13 0)
(0.039968046 -2.7393334e-13 0)
(0.039968046 -3.1641564e-13 0)
(0.039968046 -2.6792909e-13 0)
(0.039968046 -1.7990897e-13 0)
(0.039968046 -8.8258074e-14 0)
(0.039968046 -7.7984605e-15 0)
(0.039968046 4.0342471e-14 0)
(0.039968046 7.5327274e-14 0)
(0.039968046 6.3722858e-14 0)
(0.039968046 5.092574e-14 0)
(0.039968046 5.6189039e-14 0)
(0.039968046 1.2477117e-13 0)
(0.039968046 2.0865517e-13 0)
(0.039968046 2.8506084e-13 0)
(0.039968046 2.8632132e-13 0)
(0.039968046 2.3362033e-13 0)
(0.039968046 1.2371986e-13 0)
(0.039968046 4.2479201e-14 0)
(0.039968046 -2.8346079e-14 0)
(0.039968046 -5.3826258e-14 0)
(0.039968046 -8.3992453e-14 0)
(0.039968046 -9.5610817e-14 0)
(0.039968046 -1.1839079e-13 0)
(0.039968046 -1.0461093e-13 0)
(0.039968046 -8.7354676e-14 0)
(0.039968046 -5.4815094e-14 0)
(0.039968046 -6.6035696e-14 0)
(0.039968046 -1.1083959e-13 0)
(0.039968046 -2.0423276e-13 0)
(0.039968046 -2.8262438e-13 0)
(0.039968046 -3.0643463e-13 0)
(0.039968046 -2.257422e-13 0)
(0.039968046 -5.2583697e-14 0)
(0.039968046 1.2138854e-13 0)
(0.039968046 2.3371301e-13 0)
(0.039968046 2.6506619e-13 0)
(0.039968046 2.0758834e-13 0)
(0.039968046 1.1628596e-13 0)
(0.039968046 3.0234781e-14 0)
(0.039968046 -4.0268338e-14 0)
(0.039968046 -7.6152208e-14 0)
(0.039968046 -1.028502e-13 0)
(0.039968046 -1.0448814e-13 0)
(0.039968046 -1.0958782e-13 0)
(0.039968046 -1.0361181e-13 0)
(0.039968046 -1.1297867e-13 0)
(0.039968046 -1.0764026e-13 0)
(0.039968046 -1.1901186e-13 0)
(0.039968046 -1.0887081e-13 0)
(0.039968046 -1.0829867e-13 0)
(0.039968046 -1.0233065e-13 0)
(0.039968046 -1.3205518e-13 0)
(0.039968046 -1.3063268e-13 0)
(0.039968046 -7.7445251e-14 0)
(0.039968046 -1.9818543e-14 0)
(0.039968046 -1.1819613e-13 0)
(0.039968046 -2.6301731e-13 0)
(0.039968046 -1.8195234e-13 0)
(0.36732383 0.14062829 0)
(0.29754389 0.025079381 0)
(0.1860793 0.0083694667 0)
(0.16132807 0.0041218829 0)
(0.13901859 0.001937587 0)
(0.13040448 0.0011770284 0)
(0.12396461 0.00061113254 0)
(0.12095998 0.00037192397 0)
(0.1189454 0.0001972718 0)
(0.11794826 0.00011564734 0)
(0.11733081 6.0265631e-05 0)
(0.11702581 3.342019e-05 0)
(0.11685066 1.6514889e-05 0)
(0.11676842 8.3946337e-06 0)
(0.1167257 3.6640494e-06 0)
(0.11670834 1.5208456e-06 0)
(0.1167012 3.9902696e-07 0)
(0.11669986 -2.8618862e-08 0)
(0.1167004 -1.9953097e-07 0)
(0.11670175 -2.1627416e-07 0)
(0.11670304 -1.9057722e-07 0)
(0.11670415 -1.4616462e-07 0)
(0.11670497 -1.0643401e-07 0)
(0.11670557 -7.3297016e-08 0)
(0.11670597 -4.9127547e-08 0)
(0.11670624 -3.1874312e-08 0)
(0.11670642 -2.0287451e-08 0)
(0.11670653 -1.2613421e-08 0)
(0.11670659 -7.7127209e-09 0)
(0.11670664 -4.6215706e-09 0)
(0.11670666 -2.7239099e-09 0)
(0.11670667 -1.5746695e-09 0)
(0.11670668 -8.9418529e-10 0)
(0.11670669 -4.9629116e-10 0)
(0.11670669 -2.6823951e-10 0)
(0.11670669 -1.4000812e-10 0)
(0.11670669 -6.9826924e-11 0)
(0.11670669 -3.288385e-11 0)
(0.11670669 -1.4141677e-11 0)
(0.11670669 -5.3893525e-12 0)
(0.11670669 -1.5157301e-12 0)
(0.11670669 4.3275349e-14 0)
(0.11670669 1.0180559e-12 0)
(0.11670669 1.4737724e-12 0)
(0.11670669 1.2680663e-12 0)
(0.11670669 5.1359923e-13 0)
(0.11670669 -3.7535746e-14 0)
(0.11670669 7.0538945e-14 0)
(0.11670669 6.37706e-13 0)
(0.11670669 8.8172995e-13 0)
(0.11670669 9.1494354e-13 0)
(0.11670669 7.6862451e-13 0)
(0.11670669 5.9628205e-13 0)
(0.11670669 5.4350255e-13 0)
(0.11670669 5.4900877e-13 0)
(0.11670669 6.4380335e-13 0)
(0.11670669 5.8530023e-13 0)
(0.11670669 5.0111772e-13 0)
(0.11670669 4.7432341e-13 0)
(0.11670669 4.0609263e-13 0)
(0.11670669 3.4992019e-13 0)
(0.11670669 1.6194858e-13 0)
(0.11670669 -8.5440341e-15 0)
(0.11670669 -9.9592209e-14 0)
(0.11670669 -6.9188638e-14 0)
(0.11670669 6.5853167e-14 0)
(0.11670669 1.8696041e-13 0)
(0.11670669 3.6366022e-13 0)
(0.11670669 3.8156392e-13 0)
(0.11670669 3.2743154e-13 0)
(0.11670669 2.4582516e-13 0)
(0.11670669 3.2273053e-13 0)
(0.11670669 5.5825453e-13 0)
(0.11670669 8.2107169e-13 0)
(0.11670669 9.2675614e-13 0)
(0.11670669 8.5393562e-13 0)
(0.11670669 5.664203e-13 0)
(0.11670669 2.5622125e-13 0)
(0.11670669 8.3292387e-15 0)
(0.11670669 -1.728971e-13 0)
(0.11670669 -2.5350128e-13 0)
(0.11670669 -3.3948288e-13 0)
(0.11670669 -3.4749359e-13 0)
(0.11670669 -4.1143038e-13 0)
(0.11670669 -3.8920738e-13 0)
(0.11670669 -4.5065484e-13 0)
(0.11670669 -4.110758e-13 0)
(0.11670669 -4.7329704e-13 0)
(0.11670669 -4.1853743e-13 0)
(0.11670669 -4.7173374e-13 0)
(0.11670669 -4.0130579e-13 0)
(0.11670669 -4.673342e-13 0)
(0.11670669 -4.1535038e-13 0)
(0.11670669 -4.8946446e-13 0)
(0.11670669 -3.8841409e-13 0)
(0.11670669 -4.6278141e-13 0)
(0.11670669 -4.1024049e-13 0)
(0.11670669 -5.5362248e-13 0)
(0.11670669 -4.0180726e-13 0)
(0.11670669 -3.5406e-13 0)
(0.11670669 -1.5024527e-13 0)
(0.11670669 -3.7073601e-13 0)
(0.11670669 -6.5919169e-13 0)
(0.11670669 -1.1194624e-12 0)
(0.11670669 -9.5809788e-13 0)
(0.11670669 -5.0644156e-13 0)
(0.11670669 3.0157681e-13 0)
(0.11670669 5.2853149e-13 0)
(0.11670669 3.5846327e-13 0)
(0.11670669 -1.8987317e-13 0)
(0.11670669 -6.1259534e-13 0)
(0.11670669 -7.646217e-13 0)
(0.11670669 -4.6872349e-13 0)
(0.11670669 -3.7012564e-14 0)
(0.11670669 5.288108e-13 0)
(0.11670669 7.0147264e-13 0)
(0.11670669 7.3989094e-13 0)
(0.11670669 5.2655755e-13 0)
(0.11670669 4.1413728e-13 0)
(0.11670669 2.5021136e-13 0)
(0.11670669 7.2654913e-14 0)
(0.11670669 -2.5845971e-13 0)
(0.11670669 -5.8656484e-13 0)
(0.11670669 -8.1637068e-13 0)
(0.11670669 -7.5793383e-13 0)
(0.11670669 -5.4909699e-13 0)
(0.11670669 -2.1247963e-13 0)
(0.11670669 3.2543768e-14 0)
(0.11670669 2.2150656e-13 0)
(0.11670669 3.1830675e-13 0)
(0.11670669 3.8009022e-13 0)
(0.11670669 4.0142488e-13 0)
(0.11670669 4.1897013e-13 0)
(0.11670669 4.1660418e-13 0)
(0.11670669 4.2086936e-13 0)
(0.11670669 4.1314569e-13 0)
(0.11670669 4.142948e-13 0)
(0.11670669 4.0464313e-13 0)
(0.11670669 4.0505613e-13 0)
(0.11670669 3.9267269e-13 0)
(0.11670669 3.8960252e-13 0)
(0.11670669 3.7912159e-13 0)
(0.11670669 3.7849414e-13 0)
(0.11670669 3.6649637e-13 0)
(0.11670669 3.4958887e-13 0)
(0.11670669 3.4439892e-13 0)
(0.11670669 3.6198807e-13 0)
(0.11670669 3.7316076e-13 0)
(0.11670669 2.9896687e-13 0)
(0.11670669 1.8482704e-13 0)
(0.11670669 1.3827526e-13 0)
(0.11670669 2.7286407e-13 0)
(0.11670669 5.5581373e-13 0)
(0.11670669 8.5560221e-13 0)
(0.11670669 9.4379012e-13 0)
(0.11670669 8.6782299e-13 0)
(0.11670669 5.6754471e-13 0)
(0.11670669 3.1119528e-13 0)
(0.11670669 9.0737762e-14 0)
(0.11670669 -4.6833317e-14 0)
(0.11670669 -1.3218862e-13 0)
(0.11670669 -2.160487e-13 0)
(0.11670669 -2.6195406e-13 0)
(0.11670669 -3.0210186e-13 0)
(0.11670669 -3.2287651e-13 0)
(0.11670669 -3.3316171e-13 0)
(0.11670669 -3.2608576e-13 0)
(0.11670669 -3.3298604e-13 0)
(0.11670669 -3.283788e-13 0)
(0.11670669 -3.4034305e-13 0)
(0.11670669 -3.3253389e-13 0)
(0.11670669 -3.46974e-13 0)
(0.11670669 -3.3624374e-13 0)
(0.11670669 -3.5012057e-13 0)
(0.11670669 -3.3703985e-13 0)
(0.11670669 -3.4645796e-13 0)
(0.11670669 -3.3350353e-13 0)
(0.11670669 -3.4145289e-13 0)
(0.11670669 -3.2693672e-13 0)
(0.11670669 -3.4242102e-13 0)
(0.11670669 -3.3313511e-13 0)
(0.11670669 -3.6190715e-13 0)
(0.11670669 -3.4497675e-13 0)
(0.11670669 -3.6682553e-13 0)
(0.11670669 -3.5070254e-13 0)
(0.11670669 -3.7008041e-13 0)
(0.11670669 -3.5375985e-13 0)
(0.11670669 -3.8096861e-13 0)
(0.11670669 -3.8943922e-13 0)
(0.11670669 -3.9001318e-13 0)
(0.11670669 -2.9150987e-13 0)
(0.11670669 -2.1030353e-13 0)
(0.11670669 -2.3791142e-13 0)
(0.11670669 -4.4485907e-13 0)
(0.11670669 -7.6205993e-13 0)
(0.11670669 -1.0134876e-12 0)
(0.11670669 -1.0327506e-12 0)
(0.11670669 -8.5285725e-13 0)
(0.11670669 -5.4853751e-13 0)
(0.11670669 -2.4823565e-13 0)
(0.11670669 -3.9238181e-14 0)
(0.11670669 1.307261e-13 0)
(0.11670669 2.0790227e-13 0)
(0.11670669 2.9125216e-13 0)
(0.11670669 2.9526018e-13 0)
(0.11670669 3.3528031e-13 0)
(0.11670669 3.2036178e-13 0)
(0.11670669 3.4838985e-13 0)
(0.11670669 3.3303455e-13 0)
(0.11670669 3.5337396e-13 0)
(0.11670669 3.5774937e-13 0)
(0.11670669 4.1125951e-13 0)
(0.11670669 4.1769113e-13 0)
(0.11670669 3.7137912e-13 0)
(0.11670669 2.5595221e-13 0)
(0.11670669 2.2748851e-13 0)
(0.11670669 3.5111781e-13 0)
(0.11670669 6.1796868e-13 0)
(0.11670669 8.7919484e-13 0)
(0.11670669 9.6521341e-13 0)
(0.11670669 8.0809462e-13 0)
(0.11670669 5.0326541e-13 0)
(0.11670669 2.5116623e-13 0)
(0.11670669 1.3684827e-13 0)
(0.11670669 7.210752e-14 0)
(0.11670669 -8.3110288e-14 0)
(0.11670669 -3.4511122e-13 0)
(0.11670669 -6.4636601e-13 0)
(0.11670669 -8.1651517e-13 0)
(0.11670669 -9.0844175e-13 0)
(0.11670669 -7.6929583e-13 0)
(0.11670669 -5.2429148e-13 0)
(0.11670669 -4.9512367e-14 0)
(0.11670669 4.0760475e-13 0)
(0.11670669 7.5097969e-13 0)
(0.11670669 8.2404824e-13 0)
(0.11670669 6.3900726e-13 0)
(0.11670669 3.9780819e-13 0)
(0.11670669 2.2538417e-13 0)
(0.11670669 5.4938224e-14 0)
(0.11670669 -2.0419967e-13 0)
(0.11670669 -5.5145537e-13 0)
(0.11670669 -8.3945775e-13 0)
(0.11670669 -9.7028661e-13 0)
(0.11670669 -8.2508673e-13 0)
(0.11670669 -5.6197013e-13 0)
(0.11670669 -2.630784e-13 0)
(0.11670669 -2.4163978e-14 0)
(0.11670669 1.3754272e-13 0)
(0.11670669 2.4353207e-13 0)
(0.11670669 2.0928488e-13 0)
(0.11670669 1.562092e-13 0)
(0.11670669 1.5831873e-13 0)
(0.11670669 3.5302332e-13 0)
(0.11670669 6.2305418e-13 0)
(0.11670669 8.7124008e-13 0)
(0.11670669 8.8792705e-13 0)
(0.11670669 7.2267545e-13 0)
(0.11670669 3.9329402e-13 0)
(0.11670669 1.3218194e-13 0)
(0.11670669 -7.7058682e-14 0)
(0.11670669 -1.6711377e-13 0)
(0.11670669 -2.4827091e-13 0)
(0.11670669 -2.9310093e-13 0)
(0.11670669 -3.5316817e-13 0)
(0.11670669 -3.2886531e-13 0)
(0.11670669 -2.6299889e-13 0)
(0.11670669 -1.6661989e-13 0)
(0.11670669 -1.8264586e-13 0)
(0.11670669 -3.2506038e-13 0)
(0.11670669 -6.1518197e-13 0)
(0.11670669 -8.7317749e-13 0)
(0.11670669 -9.7341443e-13 0)
(0.11670669 -7.3694365e-13 0)
(0.11670669 -2.0404602e-13 0)
(0.11670669 3.3613196e-13 0)
(0.11670669 7.2098828e-13 0)
(0.11670669 8.2453968e-13 0)
(0.11670669 6.5197286e-13 0)
(0.11670669 3.8263903e-13 0)
(0.11670669 1.0330627e-13 0)
(0.11670669 -1.0443339e-13 0)
(0.11670669 -2.294517e-13 0)
(0.11670669 -3.0497163e-13 0)
(0.11670669 -3.1826594e-13 0)
(0.11670669 -3.3133716e-13 0)
(0.11670669 -3.2010086e-13 0)
(0.11670669 -3.3513036e-13 0)
(0.11670669 -3.3009112e-13 0)
(0.11670669 -3.5283674e-13 0)
(0.11670669 -3.3542821e-13 0)
(0.11670669 -3.2141068e-13 0)
(0.11670669 -3.0704701e-13 0)
(0.11670669 -3.8591713e-13 0)
(0.11670669 -4.0989426e-13 0)
(0.11670669 -2.4807382e-13 0)
(0.11670669 -3.9692944e-14 0)
(0.11670669 -2.947569e-13 0)
(0.11670669 -8.2081332e-13 0)
(0.11670669 -6.3083672e-13 0)
(0.50390834 0.19019021 0)
(0.43847039 0.050431501 0)
(0.29767008 0.022055319 0)
(0.25944374 0.010780109 0)
(0.22598939 0.0055621478 0)
(0.21213187 0.0032308048 0)
(0.20205719 0.0017732947 0)
(0.19716897 0.0010457436 0)
(0.19394744 0.0005768006 0)
(0.19230772 0.0003313396 0)
(0.19130242 0.00017833433 0)
(0.19079327 9.7730676e-05 0)
(0.19050201 4.992581e-05 0)
(0.1903612 2.532809e-05 0)
(0.19028763 1.1620458e-05 0)
(0.19025609 4.9685157e-06 0)
(0.1902425 1.595653e-06 0)
(0.19023894 1.7267493e-07 0)
(0.19023899 -4.0049053e-07 0)
(0.19024063 -5.2300011e-07 0)
(0.19024241 -4.8527131e-07 0)
(0.19024402 -3.8501481e-07 0)
(0.19024524 -2.8490629e-07 0)
(0.19024615 -1.992436e-07 0)
(0.19024677 -1.3476396e-07 0)
(0.19024719 -8.8290489e-08 0)
(0.19024746 -5.6571272e-08 0)
(0.19024763 -3.5430437e-08 0)
(0.19024774 -2.1788561e-08 0)
(0.1902478 -1.3140123e-08 0)
(0.19024784 -7.7874635e-09 0)
(0.19024787 -4.528229e-09 0)
(0.19024788 -2.5840531e-09 0)
(0.19024789 -1.4422253e-09 0)
(0.19024789 -7.8464814e-10 0)
(0.19024789 -4.1339382e-10 0)
(0.1902479 -2.0895959e-10 0)
(0.1902479 -1.0003765e-10 0)
(0.1902479 -4.4005449e-11 0)
(0.1902479 -1.687354e-11 0)
(0.1902479 -4.4601416e-12 0)
(0.1902479 6.9142364e-13 0)
(0.1902479 3.0221984e-12 0)
(0.1902479 3.661659e-12 0)
(0.1902479 3.0723478e-12 0)
(0.1902479 1.6996031e-12 0)
(0.1902479 7.0091069e-13 0)
(0.1902479 6.4982946e-13 0)
(0.1902479 1.3144492e-12 0)
(0.1902479 1.5389434e-12 0)
(0.1902479 1.5196097e-12 0)
(0.1902479 1.2472646e-12 0)
(0.1902479 9.8770336e-13 0)
(0.1902479 9.0177373e-13 0)
(0.1902479 9.1848404e-13 0)
(0.1902479 1.0362296e-12 0)
(0.1902479 9.4876172e-13 0)
(0.1902479 8.1173816e-13 0)
(0.1902479 7.7981989e-13 0)
(0.1902479 6.5712188e-13 0)
(0.1902479 5.7881745e-13 0)
(0.1902479 3.0745135e-13 0)
(0.1902479 7.186448e-14 0)
(0.1902479 -6.425572e-14 0)
(0.1902479 -2.5614991e-14 0)
(0.1902479 1.5478938e-13 0)
(0.1902479 3.2261831e-13 0)
(0.1902479 5.6982464e-13 0)
(0.1902479 6.0364026e-13 0)
(0.1902479 5.4145779e-13 0)
(0.1902479 4.639259e-13 0)
(0.1902479 5.6454952e-13 0)
(0.1902479 8.8768566e-13 0)
(0.1902479 1.1925022e-12 0)
(0.1902479 1.2793057e-12 0)
(0.1902479 1.106339e-12 0)
(0.1902479 6.7766214e-13 0)
(0.1902479 2.282714e-13 0)
(0.1902479 -1.1367076e-13 0)
(0.1902479 -3.7550333e-13 0)
(0.1902479 -4.7765283e-13 0)
(0.1902479 -6.0693854e-13 0)
(0.1902479 -6.043628e-13 0)
(0.1902479 -7.0328398e-13 0)
(0.1902479 -6.5643279e-13 0)
(0.1902479 -7.5382527e-13 0)
(0.1902479 -6.816536e-13 0)
(0.1902479 -7.7954171e-13 0)
(0.1902479 -6.8339971e-13 0)
(0.1902479 -7.6983021e-13 0)
(0.1902479 -6.5231268e-13 0)
(0.1902479 -7.5851773e-13 0)
(0.1902479 -6.6585751e-13 0)
(0.1902479 -7.8498325e-13 0)
(0.1902479 -6.2701663e-13 0)
(0.1902479 -7.5585535e-13 0)
(0.1902479 -6.6686222e-13 0)
(0.1902479 -8.8546805e-13 0)
(0.1902479 -6.5164895e-13 0)
(0.1902479 -6.2080064e-13 0)
(0.1902479 -3.3976075e-13 0)
(0.1902479 -6.6570496e-13 0)
(0.1902479 -1.0157992e-12 0)
(0.1902479 -1.5927133e-12 0)
(0.1902479 -1.2645161e-12 0)
(0.1902479 -6.3565428e-13 0)
(0.1902479 4.6083159e-13 0)
(0.1902479 6.9145682e-13 0)
(0.1902479 4.2949172e-13 0)
(0.1902479 -3.1512689e-13 0)
(0.1902479 -8.3853555e-13 0)
(0.1902479 -9.8529635e-13 0)
(0.1902479 -5.2641778e-13 0)
(0.1902479 5.4174182e-14 0)
(0.1902479 8.2262734e-13 0)
(0.1902479 9.7461407e-13 0)
(0.1902479 9.8346152e-13 0)
(0.1902479 6.4454148e-13 0)
(0.1902479 4.7878582e-13 0)
(0.1902479 2.3158755e-13 0)
(0.1902479 -1.5174919e-14 0)
(0.1902479 -4.6532157e-13 0)
(0.1902479 -8.8142006e-13 0)
(0.1902479 -1.1441816e-12 0)
(0.1902479 -9.9518636e-13 0)
(0.1902479 -6.6860567e-13 0)
(0.1902479 -1.8231615e-13 0)
(0.1902479 1.5790234e-13 0)
(0.1902479 4.2355134e-13 0)
(0.1902479 5.5422126e-13 0)
(0.1902479 6.4015098e-13 0)
(0.1902479 6.6877405e-13 0)
(0.1902479 6.9196371e-13 0)
(0.1902479 6.8921173e-13 0)
(0.1902479 6.9232416e-13 0)
(0.1902479 6.8216486e-13 0)
(0.1902479 6.801412e-13 0)
(0.1902479 6.6877291e-13 0)
(0.1902479 6.6430757e-13 0)
(0.1902479 6.497989e-13 0)
(0.1902479 6.4127734e-13 0)
(0.1902479 6.2955349e-13 0)
(0.1902479 6.2359527e-13 0)
(0.1902479 6.0965098e-13 0)
(0.1902479 5.8149433e-13 0)
(0.1902479 5.7746619e-13 0)
(0.1902479 5.9496182e-13 0)
(0.1902479 6.09544e-13 0)
(0.1902479 5.0090377e-13 0)
(0.1902479 3.5578457e-13 0)
(0.1902479 3.041805e-13 0)
(0.1902479 4.9702163e-13 0)
(0.1902479 8.710986e-13 0)
(0.1902479 1.2450744e-12 0)
(0.1902479 1.3038842e-12 0)
(0.1902479 1.1516907e-12 0)
(0.1902479 7.0754012e-13 0)
(0.1902479 3.5446483e-13 0)
(0.1902479 4.4584444e-14 0)
(0.1902479 -1.4452768e-13 0)
(0.1902479 -2.7198763e-13 0)
(0.1902479 -3.9253416e-13 0)
(0.1902479 -4.6572172e-13 0)
(0.1902479 -5.2248257e-13 0)
(0.1902479 -5.5723467e-13 0)
(0.1902479 -5.6800042e-13 0)
(0.1902479 -5.598726e-13 0)
(0.1902479 -5.6536702e-13 0)
(0.1902479 -5.6108964e-13 0)
(0.1902479 -5.7489729e-13 0)
(0.1902479 -5.6592829e-13 0)
(0.1902479 -5.8378435e-13 0)
(0.1902479 -5.707879e-13 0)
(0.1902479 -5.8894912e-13 0)
(0.1902479 -5.7244303e-13 0)
(0.1902479 -5.8565827e-13 0)
(0.1902479 -5.6839061e-13 0)
(0.1902479 -5.8073173e-13 0)
(0.1902479 -5.6011354e-13 0)
(0.1902479 -5.834929e-13 0)
(0.1902479 -5.6798372e-13 0)
(0.1902479 -6.0806255e-13 0)
(0.1902479 -5.8137893e-13 0)
(0.1902479 -6.1117789e-13 0)
(0.1902479 -5.8735616e-13 0)
(0.1902479 -6.1432614e-13 0)
(0.1902479 -5.8957848e-13 0)
(0.1902479 -6.2624136e-13 0)
(0.1902479 -6.317208e-13 0)
(0.1902479 -6.2882379e-13 0)
(0.1902479 -4.9144984e-13 0)
(0.1902479 -3.934161e-13 0)
(0.1902479 -4.4274035e-13 0)
(0.1902479 -7.232662e-13 0)
(0.1902479 -1.131468e-12 0)
(0.1902479 -1.4188798e-12 0)
(0.1902479 -1.375163e-12 0)
(0.1902479 -1.0783423e-12 0)
(0.1902479 -6.3647375e-13 0)
(0.1902479 -2.1936159e-13 0)
(0.1902479 6.6707649e-14 0)
(0.1902479 2.9630674e-13 0)
(0.1902479 3.9795304e-13 0)
(0.1902479 5.1083349e-13 0)
(0.1902479 5.1026069e-13 0)
(0.1902479 5.6461262e-13 0)
(0.1902479 5.3708301e-13 0)
(0.1902479 5.7656661e-13 0)
(0.1902479 5.5045007e-13 0)
(0.1902479 5.8294106e-13 0)
(0.1902479 5.8608374e-13 0)
(0.1902479 6.6341144e-13 0)
(0.1902479 6.6575124e-13 0)
(0.1902479 6.0469585e-13 0)
(0.1902479 4.5007191e-13 0)
(0.1902479 4.2822686e-13 0)
(0.1902479 6.0128262e-13 0)
(0.1902479 9.5566857e-13 0)
(0.1902479 1.2661955e-12 0)
(0.1902479 1.3170653e-12 0)
(0.1902479 1.0423767e-12 0)
(0.1902479 5.9597224e-13 0)
(0.1902479 2.4063209e-13 0)
(0.1902479 7.6681436e-14 0)
(0.1902479 -2.2209608e-14 0)
(0.1902479 -2.4472798e-13 0)
(0.1902479 -5.9984075e-13 0)
(0.1902479 -9.8536186e-13 0)
(0.1902479 -1.1693154e-12 0)
(0.1902479 -1.2342225e-12 0)
(0.1902479 -9.7755699e-13 0)
(0.1902479 -6.081349e-13 0)
(0.1902479 6.2471927e-14 0)
(0.1902479 6.6629781e-13 0)
(0.1902479 1.0945412e-12 0)
(0.1902479 1.1310696e-12 0)
(0.1902479 8.2645183e-13 0)
(0.1902479 4.7113641e-13 0)
(0.1902479 2.1673042e-13 0)
(0.1902479 -3.1891852e-14 0)
(0.1902479 -3.9562201e-13 0)
(0.1902479 -8.5647748e-13 0)
(0.1902479 -1.2098758e-12 0)
(0.1902479 -1.3262956e-12 0)
(0.1902479 -1.0640008e-12 0)
(0.1902479 -6.7282305e-13 0)
(0.1902479 -2.4549764e-13 0)
(0.1902479 8.3918828e-14 0)
(0.1902479 3.0271765e-13 0)
(0.1902479 4.4060817e-13 0)
(0.1902479 3.9075003e-13 0)
(0.1902479 3.2607824e-13 0)
(0.1902479 3.4105889e-13 0)
(0.1902479 6.0768091e-13 0)
(0.1902479 9.5295343e-13 0)
(0.1902479 1.2440293e-12 0)
(0.1902479 1.2001616e-12 0)
(0.1902479 9.1796099e-13 0)
(0.1902479 4.4022152e-13 0)
(0.1902479 7.305718e-14 0)
(0.1902479 -2.1449362e-13 0)
(0.1902479 -3.3777075e-13 0)
(0.1902479 -4.4831886e-13 0)
(0.1902479 -5.0914375e-13 0)
(0.1902479 -5.8604341e-13 0)
(0.1902479 -5.4931226e-13 0)
(0.1902479 -4.590787e-13 0)
(0.1902479 -3.391501e-13 0)
(0.1902479 -3.7335896e-13 0)
(0.1902479 -5.7389356e-13 0)
(0.1902479 -9.5195008e-13 0)
(0.1902479 -1.2559413e-12 0)
(0.1902479 -1.3190112e-12 0)
(0.1902479 -9.3515501e-13 0)
(0.1902479 -1.8334596e-13 0)
(0.1902479 5.3971759e-13 0)
(0.1902479 1.0250005e-12 0)
(0.1902479 1.1044138e-12 0)
(0.1902479 8.1837074e-13 0)
(0.1902479 4.2836588e-13 0)
(0.1902479 3.5570612e-14 0)
(0.1902479 -2.4782114e-13 0)
(0.1902479 -4.1858891e-13 0)
(0.1902479 -5.1963153e-13 0)
(0.1902479 -5.3895823e-13 0)
(0.1902479 -5.5932991e-13 0)
(0.1902479 -5.4615895e-13 0)
(0.1902479 -5.6595137e-13 0)
(0.1902479 -5.5977098e-13 0)
(0.1902479 -5.8749727e-13 0)
(0.1902479 -5.6272359e-13 0)
(0.1902479 -5.4241044e-13 0)
(0.1902479 -5.2629005e-13 0)
(0.1902479 -6.3070396e-13 0)
(0.1902479 -6.5456615e-13 0)
(0.1902479 -4.3150913e-13 0)
(0.1902479 -1.7069327e-13 0)
(0.1902479 -5.3216079e-13 0)
(0.1902479 -1.2179906e-12 0)
(0.1902479 -8.9094419e-13 0)
(0.59346672 0.21467329 0)
(0.54593347 0.075998405 0)
(0.39702192 0.039312301 0)
(0.34953974 0.019720564 0)
(0.30792187 0.01072674 0)
(0.28963523 0.0061583791 0)
(0.27651264 0.0034761852 0)
(0.26994405 0.002029106 0)
(0.26565503 0.0011409926 0)
(0.26342423 0.00065140966 0)
(0.26206335 0.0003563364 0)
(0.26136077 0.00019487679 0)
(0.26095907 0.00010129721 0)
(0.26076048 5.1594006e-05 0)
(0.260656 2.4317948e-05 0)
(0.26060945 1.0645016e-05 0)
(0.26058866 3.760996e-06 0)
(0.26058217 7.1164482e-07 0)
(0.26058122 -5.4276977e-07 0)
(0.26058278 -8.8437328e-07 0)
(0.2605848 -8.6466998e-07 0)
(0.26058673 -7.0561314e-07 0)
(0.26058825 -5.2976685e-07 0)
(0.26058939 -3.7487843e-07 0)
(0.26059018 -2.5550679e-07 0)
(0.26059072 -1.6860202e-07 0)
(0.26059108 -1.0860758e-07 0)
(0.2605913 -6.8383277e-08 0)
(0.26059144 -4.2239623e-08 0)
(0.26059153 -2.5591742e-08 0)
(0.26059159 -1.5230329e-08 0)
(0.26059162 -8.8943407e-09 0)
(0.26059163 -5.0959119e-09 0)
(0.26059165 -2.8569011e-09 0)
(0.26059165 -1.5624803e-09 0)
(0.26059165 -8.2892446e-10 0)
(0.26059166 -4.2299303e-10 0)
(0.26059166 -2.0511449e-10 0)
(0.26059166 -9.2077446e-11 0)
(0.26059166 -3.6258286e-11 0)
(0.26059166 -1.0002854e-11 0)
(0.26059166 1.2788023e-12 0)
(0.26059166 5.7881393e-12 0)
(0.26059166 6.4765903e-12 0)
(0.26059166 5.2294581e-12 0)
(0.26059166 3.3073356e-12 0)
(0.26059166 2.0304038e-12 0)
(0.26059166 1.7296826e-12 0)
(0.26059166 2.1830381e-12 0)
(0.26059166 2.2306121e-12 0)
(0.26059166 2.063739e-12 0)
(0.26059166 1.6677916e-12 0)
(0.26059166 1.3543407e-12 0)
(0.26059166 1.2885132e-12 0)
(0.26059166 1.3467463e-12 0)
(0.26059166 1.4685105e-12 0)
(0.26059166 1.3662066e-12 0)
(0.26059166 1.2269712e-12 0)
(0.26059166 1.1489565e-12 0)
(0.26059166 9.6614655e-13 0)
(0.26059166 8.4702856e-13 0)
(0.26059166 5.7711152e-13 0)
(0.26059166 3.5189783e-13 0)
(0.26059166 2.1004689e-13 0)
(0.26059166 2.2024325e-13 0)
(0.26059166 3.8212847e-13 0)
(0.26059166 5.3293077e-13 0)
(0.26059166 7.9300128e-13 0)
(0.26059166 8.3779581e-13 0)
(0.26059166 8.4791251e-13 0)
(0.26059166 8.5852243e-13 0)
(0.26059166 1.0012273e-12 0)
(0.26059166 1.2514015e-12 0)
(0.26059166 1.3833757e-12 0)
(0.26059166 1.220263e-12 0)
(0.26059166 8.3705185e-13 0)
(0.26059166 2.8377162e-13 0)
(0.26059166 -2.0061085e-13 0)
(0.26059166 -5.4845448e-13 0)
(0.26059166 -8.0491881e-13 0)
(0.26059166 -8.962265e-13 0)
(0.26059166 -1.0192128e-12 0)
(0.26059166 -1.0017738e-12 0)
(0.26059166 -1.0996464e-12 0)
(0.26059166 -1.036429e-12 0)
(0.26059166 -1.1377209e-12 0)
(0.26059166 -1.0439272e-12 0)
(0.26059166 -1.1452912e-12 0)
(0.26059166 -1.0208755e-12 0)
(0.26059166 -1.1110781e-12 0)