/*--------------------------------*- C++ -*----------------------------------*\
| =========                 |                                                 |
| \\      /  F ield         | OpenFOAM: The Open Source CFD Toolbox           |
|  \\    /   O peration     | Version:  2206                                  |
|   \\  /    A nd           | Website:  www.openfoam.com                      |
|    \\/     M anipulation  |                                                 |
\*---------------------------------------------------------------------------*/
FoamFile
{
    version     2.0;
    format      ascii;
    arch        "LSB;label=32;scalar=64";
    class       surfaceScalarField;
    location    "14";
    object      phi;
}
// * * * * * * * * * * * * * * * * * * * * * * * * * * * * * * * * * * * * * //

dimensions      [0 3 -1 0 0 0 0];

oriented        oriented;

internalField   nonuniform List<scalar> 
29650
(
6.0867649e-05
0.00020579915
3.2718171e-05
2.8149486e-05
2.4599022e-05
8.1191626e-06
2.0417849e-05
4.1811889e-06
1.8552178e-05
1.8656854e-06
1.73737e-05
1.1784887e-06
1.6781661e-05
5.920447e-07
1.6412314e-05
3.6934743e-07
1.622082e-05
1.9149176e-07
1.6106686e-05
1.14131e-07
1.6048258e-05
5.8424415e-08
1.6015474e-05
3.2781814e-08
1.5999542e-05
1.5931511e-08
1.5991376e-05
8.1658398e-09
1.5987889e-05
3.4875891e-09
1.598644e-05
1.4492246e-09
1.5986091e-05
3.5027362e-10
1.5986138e-05
-4.7452512e-11
1.5986349e-05
-2.1081849e-10
1.5986569e-05
-2.1977659e-10
1.5986762e-05
-1.9230026e-10
1.5986908e-05
-1.4624862e-10
1.5987014e-05
-1.0633448e-10
1.5987087e-05
-7.2986629e-11
1.5987136e-05
-4.888771e-11
1.5987167e-05
-3.1646668e-11
1.5987187e-05
-2.0114888e-11
1.59872e-05
-1.2471461e-11
1.5987208e-05
-7.6078913e-12
1.5987212e-05
-4.5441213e-12
1.5987215e-05
-2.6689016e-12
1.5987216e-05
-1.5363751e-12
1.5987217e-05
-8.6746444e-13
1.5987218e-05
-4.795342e-13
1.5987218e-05
-2.5799295e-13
1.5987218e-05
-1.3497003e-13
1.5987218e-05
-6.7456641e-14
1.5987218e-05
-3.3169039e-14
1.5987218e-05
-1.5959346e-14
1.5987218e-05
-7.5485979e-15
1.5987218e-05
-2.9495072e-15
1.5987218e-05
-3.1769328e-16
1.5987218e-05
4.8753284e-16
1.5987218e-05
8.7047571e-16
1.5987218e-05
1.2589416e-16
1.5987218e-05
-1.0206453e-16
1.5987218e-05
-8.4280966e-16
1.5987218e-05
-9.2919578e-16
1.5987218e-05
-1.9337978e-15
1.5987218e-05
-1.6331676e-15
1.5987218e-05
-2.3185561e-15
1.5987218e-05
-1.9185228e-15
1.5987218e-05
-2.4539703e-15
1.5987218e-05
-1.9305856e-15
1.5987218e-05
-2.1459034e-15
1.5987218e-05
-1.4648848e-15
1.5987218e-05
-1.3141721e-15
1.5987218e-05
-3.7553866e-16
1.5987218e-05
-4.2190003e-16
1.5987218e-05
6.2086074e-16
1.5987218e-05
6.6274682e-16
1.5987218e-05
1.3545192e-15
1.5987218e-05
1.0524467e-15
1.5987218e-05
1.3617073e-15
1.5987218e-05
1.0806245e-15
1.5987218e-05
1.4878584e-15
1.5987218e-05
1.5900732e-15
1.5987218e-05
2.0259702e-15
1.5987218e-05
2.1325195e-15
1.5987218e-05
2.3234557e-15
1.5987218e-05
2.2229331e-15
1.5987218e-05
2.2192792e-15
1.5987218e-05
2.184392e-15
1.5987218e-05
2.1254438e-15
1.5987218e-05
2.1749272e-15
1.5987218e-05
2.0721719e-15
1.5987218e-05
2.1868668e-15
1.5987218e-05
1.9944331e-15
1.5987218e-05
2.1363215e-15
1.5987218e-05
1.8525344e-15
1.5987218e-05
2.0320732e-15
1.5987218e-05
1.7204105e-15
1.5987218e-05
1.9754444e-15
1.5987218e-05
1.6595145e-15
1.5987218e-05
1.8845229e-15
1.5987218e-05
1.4569336e-15
1.5987218e-05
1.6756733e-15
1.5987218e-05
1.4540832e-15
1.5987218e-05
1.9662589e-15
1.5987218e-05
1.8139774e-15
1.5987218e-05
2.0223005e-15
1.5987218e-05
1.2445349e-15
1.5987218e-05
8.1129157e-16
1.5987218e-05
-2.8027409e-16
1.5987218e-05
-5.7751636e-16
1.5987218e-05
-1.2521491e-15
1.5987218e-05
-1.1003026e-15
1.5987218e-05
-1.4575853e-15
1.5987218e-05
-1.157341e-15
1.5987218e-05
-1.5131402e-15
1.5987218e-05
-1.2347377e-15
1.5987218e-05
-1.6245808e-15
1.5987218e-05
-1.3072822e-15
1.5987218e-05
-1.6731571e-15
1.5987218e-05
-1.3303689e-15
1.5987218e-05
-1.6571975e-15
1.5987218e-05
-1.336091e-15
1.5987218e-05
-1.6130293e-15
1.5987218e-05
-1.3573582e-15
1.5987218e-05
-1.5798039e-15
1.5987218e-05
-1.5189222e-15
1.5987218e-05
-1.769612e-15
1.5987218e-05
-1.7961106e-15
1.5987218e-05
-1.9764706e-15
1.5987218e-05
-1.7728677e-15
1.5987218e-05
-1.9081633e-15
1.5987218e-05
-1.7634779e-15
1.5987218e-05
-1.8777303e-15
1.5987218e-05
-1.7800841e-15
1.5987218e-05
-1.8449074e-15
1.5987218e-05
-1.7754457e-15
1.5987218e-05
-1.7844286e-15
1.5987218e-05
-1.7499762e-15
1.5987218e-05
-1.7241114e-15
1.5987218e-05
-1.7237315e-15
1.5987218e-05
-1.6751385e-15
1.5987218e-05
-1.7016892e-15
1.5987218e-05
-1.6355709e-15
1.5987218e-05
-1.684166e-15
1.5987218e-05
-1.6095873e-15
1.5987218e-05
-1.6803333e-15
1.5987218e-05
-1.5938546e-15
1.5987218e-05
-1.6796399e-15
1.5987218e-05
-1.5767623e-15
1.5987218e-05
-1.6724828e-15
1.5987218e-05
-1.5457388e-15
1.5987218e-05
-1.6448926e-15
1.5987218e-05
-1.4940743e-15
1.5987218e-05
-1.5968272e-15
1.5987218e-05
-1.4281805e-15
1.5987218e-05
-1.5419474e-15
1.5987218e-05
-1.3747944e-15
1.5987218e-05
-1.5043643e-15
1.5987218e-05
-1.3260505e-15
1.5987218e-05
-1.4572236e-15
1.5987218e-05
-1.2971023e-15
1.5987218e-05
-1.4483206e-15
1.5987218e-05
-1.2370873e-15
1.5987218e-05
-1.3276221e-15
1.5987218e-05
-1.1802864e-15
1.5987218e-05
-1.4808921e-15
1.5987218e-05
-1.499606e-15
1.5987218e-05
-1.7032111e-15
1.5987218e-05
-1.2551857e-15
1.5987218e-05
-8.1395768e-16
1.5987218e-05
1.1740845e-16
1.5987218e-05
6.4072113e-16
1.5987218e-05
1.2442818e-15
1.5987218e-05
1.3935973e-15
1.5987218e-05
1.6387125e-15
1.5987218e-05
1.6513211e-15
1.5987218e-05
1.7266743e-15
1.5987218e-05
1.6680102e-15
1.5987218e-05
1.7278777e-15
1.5987218e-05
1.8013945e-15
1.5987218e-05
2.0033833e-15
1.5987218e-05
2.0291659e-15
1.5987218e-05
1.742195e-15
1.5987218e-05
1.1836559e-15
1.5987218e-05
4.0666743e-16
1.5987218e-05
-2.2419448e-16
1.5987218e-05
-7.1344875e-16
1.5987218e-05
-8.8452905e-16
1.5987218e-05
-1.0288505e-15
1.5987218e-05
-9.5875614e-16
1.5987218e-05
-1.0362503e-15
1.5987218e-05
-9.0259266e-16
1.5987218e-05
-1.0075168e-15
1.5987218e-05
-8.4448394e-16
1.5987218e-05
-1.0102327e-15
1.5987218e-05
-8.6457764e-16
1.5987218e-05
-1.0970089e-15
1.5987218e-05
-9.4867309e-16
1.5987218e-05
-1.2412649e-15
1.5987218e-05
-1.114569e-15
1.5987218e-05
-1.4490845e-15
1.5987218e-05
-1.3041901e-15
1.5987218e-05
-1.6238234e-15
1.5987218e-05
-1.4585689e-15
1.5987218e-05
-1.7654031e-15
1.5987218e-05
-1.6160966e-15
1.5987218e-05
-1.9222023e-15
1.5987218e-05
-1.8195327e-15
1.5987218e-05
-2.0918763e-15
1.5987218e-05
-2.0597586e-15
1.5987218e-05
-2.3226882e-15
1.5987218e-05
-2.4266827e-15
1.5987218e-05
-2.5190646e-15
1.5987218e-05
-2.5660956e-15
1.5987218e-05
-2.4170978e-15
1.5987218e-05
-2.4646201e-15
1.5987218e-05
-2.2277716e-15
1.5987218e-05
-2.2518237e-15
1.5987218e-05
-1.5264506e-15
1.5987218e-05
-1.1186982e-15
1.5987218e-05
9.4603233e-17
1.5987218e-05
5.6304626e-16
1.5987218e-05
1.3710699e-15
1.5987218e-05
1.3898406e-15
1.5987218e-05
1.8695855e-15
1.5987218e-05
1.9199224e-15
1.5987218e-05
2.3508873e-15
1.5987218e-05
2.1534766e-15
1.5987218e-05
1.8176341e-15
1.5987218e-05
7.6566952e-16
1.5987218e-05
-1.1316873e-16
1.5987218e-05
-7.8163606e-16
1.5987218e-05
-7.5756435e-16
1.5987218e-05
-3.8520926e-16
1.5987218e-05
3.1238455e-16
1.5987218e-05
9.7622585e-16
1.5987218e-05
1.5924358e-15
1.5987218e-05
2.0837225e-15
1.5987218e-05
2.1523786e-15
1.5987218e-05
1.946557e-15
1.5987218e-05
1.1862802e-15
1.5987218e-05
4.6620631e-16
1.5987218e-05
-4.5800184e-16
1.5987218e-05
-7.9515069e-16
1.5987218e-05
-1.1889433e-15
1.5987218e-05
-1.1925339e-15
1.5987218e-05
-1.577161e-15
1.5987218e-05
-1.6944538e-15
1.5987218e-05
-1.9219343e-15
1.5987218e-05
-1.5990837e-15
1.5987218e-05
-1.1695427e-15
1.5987218e-05
-3.7549184e-16
1.5987218e-05
2.4092059e-16
1.5987218e-05
9.2271948e-16
1.5987218e-05
1.2777327e-15
1.5987218e-05
1.5145215e-15
1.5987218e-05
1.231297e-15
1.5987218e-05
7.1215045e-16
1.5987218e-05
-1.1962196e-16
1.5987218e-05
-7.8659791e-16
1.5987218e-05
-1.2307656e-15
1.5987218e-05
-1.4425816e-15
1.5987218e-05
-1.537067e-15
1.5987218e-05
-1.7301945e-15
1.5987218e-05
-1.8631761e-15
1.5987218e-05
-1.9564605e-15
1.5987218e-05
-1.6106076e-15
1.5987218e-05
-9.7115869e-16
1.5987218e-05
1.2902356e-16
1.5987218e-05
9.4093248e-16
1.5987218e-05
1.4490787e-15
1.5987218e-05
1.2636231e-15
1.5987218e-05
7.3041322e-16
1.5987218e-05
-3.7617578e-17
1.5987218e-05
-6.1321109e-16
1.5987218e-05
-9.950105e-16
1.5987218e-05
-1.1554157e-15
1.5987218e-05
-1.2057019e-15
1.5987218e-05
-1.2466657e-15
1.5987218e-05
-1.2549809e-15
1.5987218e-05
-1.2875108e-15
1.5987218e-05
-1.1858932e-15
1.5987218e-05
-1.1817279e-15
1.5987218e-05
-1.1657272e-15
1.5987218e-05
-1.4062495e-15
1.5987218e-05
-1.4907381e-15
1.5987218e-05
-1.5510218e-15
1.5987218e-05
-1.163115e-15
1.5987218e-05
-6.7654766e-16
1.5987218e-05
3.0005026e-17
1.5987218e-05
4.9019461e-16
1.5987218e-05
9.3273848e-16
1.5987218e-05
1.0358598e-15
1.5987218e-05
1.1255021e-15
1.5987218e-05
1.0368278e-15
1.5987218e-05
1.089369e-15
1.5987218e-05
1.2297698e-15
1.5987218e-05
1.4593283e-15
1.5987218e-05
1.5354584e-15
1.5987218e-05
1.3123909e-15
1.5987218e-05
7.4095115e-16
1.5987218e-05
-3.9885803e-17
1.5987218e-05
-6.8351692e-16
1.5987218e-05
-1.1904003e-15
1.5987218e-05
-1.3627648e-15
1.5987218e-05
-1.4830916e-15
1.5987218e-05
-1.4159118e-15
1.5987218e-05
-1.5235286e-15
1.5987218e-05
-1.4731966e-15
1.5987218e-05
-1.4617978e-15
1.5987218e-05
-1.2233725e-15
1.5987218e-05
-1.4280415e-15
1.5987218e-05
-1.7192415e-15
1.5987218e-05
-1.7882939e-15
-8.063893e-16
0.00014027132
0.00033219464
9.2549244e-05
7.5871575e-05
7.0338073e-05
3.0330355e-05
5.9620314e-05
1.4898971e-05
5.4019643e-05
7.4663782e-06
5.0795344e-05
4.4028052e-06
4.901105e-05
2.3763507e-06
4.7964745e-05
1.415658e-06
4.7384384e-05
7.7185217e-07
4.7052234e-05
4.4627785e-07
4.6872682e-05
2.3797096e-07
4.677453e-05
1.3092955e-07
4.6724187e-05
6.6273115e-08
4.6698685e-05
3.3666902e-08
4.6686924e-05
1.5248333e-08
4.6681893e-05
6.4816738e-09
4.6680252e-05
1.9916217e-09
4.6680058e-05
1.4694636e-10
4.6680445e-05
-5.9705802e-10
4.6680961e-05
-7.3599195e-10
4.6681443e-05
-6.7355706e-10
4.6681826e-05
-5.2957711e-10
4.668211e-05
-3.9048566e-10
4.6682309e-05
-2.7212684e-10
4.6682444e-05
-1.8374568e-10
4.6682532e-05
-1.2011231e-10
4.6682589e-05
-7.6829187e-11
4.6682624e-05
-4.8007042e-11
4.6682646e-05
-2.945942e-11
4.6682659e-05
-1.7720351e-11
4.6682667e-05
-1.0473649e-11
4.6682672e-05
-6.069974e-12
4.6682674e-05
-3.4503841e-12
4.6682676e-05
-1.9187155e-12
4.6682676e-05
-1.0396554e-12
4.6682677e-05
-5.4610842e-13
4.6682677e-05
-2.7537885e-13
4.6682677e-05
-1.3360874e-13
4.6682677e-05
-6.2037357e-14
4.6682677e-05
-2.6439774e-14
4.6682677e-05
-8.1024606e-15
4.6682677e-05
1.3868658e-15
4.6682677e-05
4.4407804e-15
4.6682677e-05
5.096594e-15
4.6682677e-05
2.6872643e-15
4.6682677e-05
7.8158835e-16
4.6682677e-05
-1.8493874e-15
4.6682677e-05
-2.792702e-15
4.6682677e-05
-5.1070441e-15
4.6682677e-05
-4.3037624e-15
4.6682677e-05
-5.4737049e-15
4.6682677e-05
-4.7785691e-15
4.6682677e-05
-5.9736171e-15
4.6682677e-05
-5.3880217e-15
4.6682677e-05
-5.8079209e-15
4.6682677e-05
-4.7599652e-15
4.6682677e-05
-4.1570862e-15
4.6682677e-05
-1.832612e-15
4.6682677e-05
-1.3454809e-15
4.6682677e-05
1.2704547e-15
4.6682677e-05
1.5897248e-15
4.6682677e-05
3.236333e-15
4.6682677e-05
2.8983277e-15
4.6682677e-05
3.5621372e-15
4.6682677e-05
3.0057e-15
4.6682677e-05
3.5927596e-15
4.6682677e-05
3.7420241e-15
4.6682677e-05
4.4579537e-15
4.6682677e-05
4.7103679e-15
4.6682677e-05
5.265332e-15
4.6682677e-05
5.1378327e-15
4.6682677e-05
5.4602412e-15
4.6682677e-05
5.2180822e-15
4.6682677e-05
5.255055e-15
4.6682677e-05
5.1250572e-15
4.6682677e-05
5.0942685e-15
4.6682677e-05
5.1289509e-15
4.6682677e-05
4.9802937e-15
4.6682677e-05
5.0575276e-15
4.6682677e-05
4.7245569e-15
4.6682677e-05
4.8415066e-15
4.6682677e-05
4.4671737e-15
4.6682677e-05
4.7509588e-15
4.6682677e-05
4.3966186e-15
4.6682677e-05
4.5672773e-15
4.6682677e-05
3.9402241e-15
4.6682677e-05
4.1385494e-15
4.6682677e-05
4.0863344e-15
4.6682677e-05
5.0540453e-15
4.6682677e-05
5.0181718e-15
4.6682677e-05
4.9054113e-15
4.6682677e-05
3.2051329e-15
4.6682677e-05
1.4882076e-15
4.6682677e-05
-8.2372568e-16
4.6682677e-05
-2.0270296e-15
4.6682677e-05
-3.3283376e-15
4.6682677e-05
-3.3295557e-15
4.6682677e-05
-3.8002337e-15
4.6682677e-05
-3.3926213e-15
4.6682677e-05
-3.8874212e-15
4.6682677e-05
-3.5690332e-15
4.6682677e-05
-4.1186263e-15
4.6682677e-05
-3.6703744e-15
4.6682677e-05
-4.1515077e-15
4.6682677e-05
-3.6397906e-15
4.6682677e-05
-4.0941602e-15
4.6682677e-05
-3.6419656e-15
4.6682677e-05
-4.0398624e-15
4.6682677e-05
-3.6920392e-15
4.6682677e-05
-3.9834939e-15
4.6682677e-05
-3.9532081e-15
4.6682677e-05
-4.3721583e-15
4.6682677e-05
-4.5257233e-15
4.6682677e-05
-4.8038755e-15
4.6682677e-05
-4.5920164e-15
4.6682677e-05
-4.8077856e-15
4.6682677e-05
-4.6006834e-15
4.6682677e-05
-4.7616803e-15
4.6682677e-05
-4.6093647e-15
4.6682677e-05
-4.69105e-15
4.6682677e-05
-4.5765295e-15
4.6682677e-05
-4.5637389e-15
4.6682677e-05
-4.4936164e-15
4.6682677e-05
-4.4323347e-15
4.6682677e-05
-4.4180635e-15
4.6682677e-05
-4.3328115e-15
4.6682677e-05
-4.3615114e-15
4.6682677e-05
-4.2595076e-15
4.6682677e-05
-4.3207388e-15
4.6682677e-05
-4.2205365e-15
4.6682677e-05
-4.3193655e-15
4.6682677e-05
-4.2137699e-15
4.6682677e-05
-4.3361771e-15
4.6682677e-05
-4.2079364e-15
4.6682677e-05
-4.337316e-15
4.6682677e-05
-4.1655671e-15
4.6682677e-05
-4.2866222e-15
4.6682677e-05
-4.0682384e-15
4.6682677e-05
-4.1853277e-15
4.6682677e-05
-3.9359291e-15
4.6682677e-05
-4.0738498e-15
4.6682677e-05
-3.8402939e-15
4.6682677e-05
-4.0087074e-15
4.6682677e-05
-3.7445911e-15
4.6682677e-05
-3.9011156e-15
4.6682677e-05
-3.690874e-15
4.6682677e-05
-3.8936682e-15
4.6682677e-05
-3.5433063e-15
4.6682677e-05
-3.5927485e-15
4.6682677e-05
-3.4466998e-15
4.6682677e-05
-4.0940243e-15
4.6682677e-05
-4.2828726e-15
4.6682677e-05
-4.448664e-15
4.6682677e-05
-3.3414541e-15
4.6682677e-05
-1.7971111e-15
4.6682677e-05
3.9306507e-16
4.6682677e-05
1.9529579e-15
4.6682677e-05
3.3261122e-15
4.6682677e-05
3.8318162e-15
4.6682677e-05
4.2960812e-15
4.6682677e-05
4.3001004e-15
4.6682677e-05
4.3585426e-15
4.6682677e-05
4.2228857e-15
4.6682677e-05
4.3610328e-15
4.6682677e-05
4.7312701e-15
4.6682677e-05
5.2216117e-15
4.6682677e-05
5.1348743e-15
4.6682677e-05
4.2548185e-15
4.6682677e-05
2.5301161e-15
4.6682677e-05
5.7824899e-16
4.6682677e-05
-1.1472735e-15
4.6682677e-05
-2.3401168e-15
4.6682677e-05
-2.8662299e-15
4.6682677e-05
-3.1415487e-15
4.6682677e-05
-3.0293483e-15
4.6682677e-05
-3.0951502e-15
4.6682677e-05
-2.8840024e-15
4.6682677e-05
-3.0098554e-15
4.6682677e-05
-2.7759304e-15
4.6682677e-05
-3.0135146e-15
4.6682677e-05
-2.8060239e-15
4.6682677e-05
-3.1614577e-15
4.6682677e-05
-2.949278e-15
4.6682677e-05
-3.4137822e-15
4.6682677e-05
-3.2755601e-15
4.6682677e-05
-3.8148965e-15
4.6682677e-05
-3.6430033e-15
4.6682677e-05
-4.1476112e-15
4.6682677e-05
-3.9219581e-15
4.6682677e-05
-4.3919923e-15
4.6682677e-05
-4.1987331e-15
4.6682677e-05
-4.672885e-15
4.6682677e-05
-4.5366448e-15
4.6682677e-05
-4.9379185e-15
4.6682677e-05
-4.905121e-15
4.6682677e-05
-5.3369271e-15
4.6682677e-05
-5.51364e-15
4.6682677e-05
-5.6349129e-15
4.6682677e-05
-5.6281832e-15
4.6682677e-05
-5.4863436e-15
4.6682677e-05
-5.7545816e-15
4.6682677e-05
-5.5883812e-15
4.6682677e-05
-5.5566985e-15
4.6682677e-05
-4.0416744e-15
4.6682677e-05
-2.5741768e-15
4.6682677e-05
9.1248783e-17
4.6682677e-05
1.6034596e-15
4.6682677e-05
3.2459336e-15
4.6682677e-05
3.6206628e-15
4.6682677e-05
4.5777982e-15
4.6682677e-05
4.9767592e-15
4.6682677e-05
5.7640765e-15
4.6682677e-05
5.298152e-15
4.6682677e-05
4.0362942e-15
4.6682677e-05
1.3157161e-15
4.6682677e-05
-9.6460481e-16
4.6682677e-05
-2.4939723e-15
4.6682677e-05
-2.3145376e-15
4.6682677e-05
-1.1725461e-15
4.6682677e-05
6.0128172e-16
4.6682677e-05
2.4152295e-15
4.6682677e-05
4.0170106e-15
4.6682677e-05
5.2574216e-15
4.6682677e-05
5.3618795e-15
4.6682677e-05
4.5754838e-15
4.6682677e-05
2.6867754e-15
4.6682677e-05
6.1181072e-16
4.6682677e-05
-1.4494403e-15
4.6682677e-05
-2.4303427e-15
4.6682677e-05
-3.219521e-15
4.6682677e-05
-3.3984371e-15
4.6682677e-05
-4.2037603e-15
4.6682677e-05
-4.601777e-15
4.6682677e-05
-4.8849158e-15
4.6682677e-05
-3.8940186e-15
4.6682677e-05
-2.5907943e-15
4.6682677e-05
-5.3381573e-16
4.6682677e-05
1.1329342e-15
4.6682677e-05
2.8773141e-15
4.6682677e-05
3.841887e-15
4.6682677e-05
4.2077494e-15
4.6682677e-05
3.3961609e-15
4.6682677e-05
1.7300324e-15
4.6682677e-05
-3.5220456e-16
4.6682677e-05
-2.1496646e-15
4.6682677e-05
-3.2325695e-15
4.6682677e-05
-3.7487369e-15
4.6682677e-05
-4.0336117e-15
4.6682677e-05
-4.5090833e-15
4.6682677e-05
-4.8913581e-15
4.6682677e-05
-5.0237139e-15
4.6682677e-05
-4.0930755e-15
4.6682677e-05
-2.1744962e-15
4.6682677e-05
5.1931887e-16
4.6682677e-05
2.6660578e-15
4.6682677e-05
3.6965628e-15
4.6682677e-05
3.088734e-15
4.6682677e-05
1.5177295e-15
4.6682677e-05
-5.1463259e-16
4.6682677e-05
-2.0148011e-15
4.6682677e-05
-3.0461341e-15
4.6682677e-05
-3.4525688e-15
4.6682677e-05
-3.5759539e-15
4.6682677e-05
-3.6360528e-15
4.6682677e-05
-3.6682028e-15
4.6682677e-05
-3.6733874e-15
4.6682677e-05
-3.4446109e-15
4.6682677e-05
-3.3849869e-15
4.6682677e-05
-3.4796445e-15
4.6682677e-05
-4.0492666e-15
4.6682677e-05
-4.3011055e-15
4.6682677e-05
-4.1637688e-15
4.6682677e-05
-2.9851591e-15
4.6682677e-05
-1.4508073e-15
4.6682677e-05
4.9338789e-16
4.6682677e-05
1.8186013e-15
4.6682677e-05
2.9565635e-15
4.6682677e-05
3.297168e-15
4.6682677e-05
3.4075238e-15
4.6682677e-05
3.2031217e-15
4.6682677e-05
3.3001944e-15
4.6682677e-05
3.6711019e-15
4.6682677e-05
4.2116134e-15
4.6682677e-05
4.2771387e-15
4.6682677e-05
3.4240615e-15
4.6682677e-05
1.8336569e-15
4.6682677e-05
-2.9636956e-16
4.6682677e-05
-1.9844947e-15
4.6682677e-05
-3.2781269e-15
4.6682677e-05
-3.791129e-15
4.6682677e-05
-4.0035871e-15
4.6682677e-05
-3.8907939e-15
4.6682677e-05
-4.0733589e-15
4.6682677e-05
-4.0454303e-15
4.6682677e-05
-3.8534117e-15
4.6682677e-05
-3.325014e-15
4.6682677e-05
-3.8914745e-15
4.6682677e-05
-4.8838494e-15
4.6682677e-05
-4.8003265e-15
-2.062417e-15
0.00019469214
0.0004041693
0.00014360962
0.0001269541
0.00011230147
6.1638496e-05
9.6619294e-05
3.0581148e-05
8.7762221e-05
1.6323449e-05
8.2755406e-05
9.4096181e-06
7.9871701e-05
5.2600548e-06
7.8206034e-05
3.0813258e-06
7.7256668e-05
1.7212183e-06
7.6718195e-05
9.8475222e-07
7.6420462e-05
5.3570373e-07
7.6258218e-05
2.9317433e-07
7.6172993e-05
1.5149833e-07
7.61296e-05
7.7059926e-08
7.6108851e-05
3.5997021e-08
7.6099695e-05
1.5637214e-08
7.6096324e-05
5.3624681e-09
7.6095587e-05
8.837485e-10
7.6095937e-05
-9.4626634e-10
7.6096611e-05
-1.4105823e-09
7.609729e-05
-1.3528609e-09
7.6097854e-05
-1.0930283e-09
7.609828e-05
-8.1660789e-10
7.6098584e-05
-5.7561782e-10
7.6098791e-05
-3.9138033e-10
7.6098929e-05
-2.5765919e-10
7.6099018e-05
-1.6567357e-10
7.6099074e-05
-1.0410894e-10
7.6099108e-05
-6.4193627e-11
7.609913e-05
-3.8819009e-11
7.6099142e-05
-2.3057814e-11
7.609915e-05
-1.3436742e-11
7.6099154e-05
-7.6790298e-12
7.6099156e-05
-4.294909e-12
7.6099157e-05
-2.3425134e-12
7.6099158e-05
-1.2402318e-12
7.6099158e-05
-6.3121001e-13
7.6099159e-05
-3.0701068e-13
7.6099159e-05
-1.3976939e-13
7.6099159e-05
-5.6488443e-14
7.6099159e-05
-1.6046675e-14
7.6099159e-05
2.6332561e-15
7.6099159e-05
8.561222e-15
7.6099159e-05
9.4361523e-15
7.6099159e-05
6.191734e-15
7.6099159e-05
3.5191052e-15
7.6099159e-05
1.1735974e-16
7.6099159e-05
-1.3301308e-15
7.6099159e-05
-4.0282966e-15
7.6099159e-05
-3.6333466e-15
7.6099159e-05
-5.1181763e-15
7.6099159e-05
-4.7112221e-15
7.6099159e-05
-6.2286114e-15
7.6099159e-05
-5.7164659e-15
7.6099159e-05
-6.2119512e-15
7.6099159e-05
-4.792583e-15
7.6099159e-05
-3.979213e-15
7.6099159e-05
-1.5013947e-15
7.6099159e-05
-9.4721002e-16
7.6099159e-05
1.430448e-15
7.6099159e-05
1.6517921e-15
7.6099159e-05
3.1121537e-15
7.6099159e-05
2.6848403e-15
7.6099159e-05
3.3062746e-15
7.6099159e-05
2.728669e-15
7.6099159e-05
3.3819983e-15
7.6099159e-05
3.5826249e-15
7.6099159e-05
4.4560224e-15
7.6099159e-05
4.8116215e-15
7.6099159e-05
5.3827154e-15
7.6099159e-05
5.3786276e-15
7.6099159e-05
5.5389808e-15
7.6099159e-05
5.4330343e-15
7.6099159e-05
5.3173596e-15
7.6099159e-05
5.3172684e-15
7.6099159e-05
5.1458724e-15
7.6099159e-05
5.3297836e-15
7.6099159e-05
5.0351947e-15
7.6099159e-05
5.2758237e-15
7.6099159e-05
4.7844935e-15
7.6099159e-05
5.0686041e-15
7.6099159e-05
4.5189414e-15
7.6099159e-05
4.9546532e-15
7.6099159e-05
4.4007857e-15
7.6099159e-05
4.7335084e-15
7.6099159e-05
3.9434094e-15
7.6099159e-05
4.328345e-15
7.6099159e-05
4.1008674e-15
7.6099159e-05
5.1407931e-15
7.6099159e-05
4.8508749e-15
7.6099159e-05
4.8576385e-15
7.6099159e-05
2.9681983e-15
7.6099159e-05
1.5530394e-15
7.6099159e-05
-8.3058129e-16
7.6099159e-05
-1.7622776e-15
7.6099159e-05
-3.1599068e-15
7.6099159e-05
-2.9988901e-15
7.6099159e-05
-3.616853e-15
7.6099159e-05
-3.0908113e-15
7.6099159e-05
-3.7429907e-15
7.6099159e-05
-3.2947755e-15
7.6099159e-05
-4.0058537e-15
7.6099159e-05
-3.4110893e-15
7.6099159e-05
-4.0420986e-15
7.6099159e-05
-3.3782997e-15
7.6099159e-05
-3.9620089e-15
7.6099159e-05
-3.337843e-15
7.6099159e-05
-3.821144e-15
7.6099159e-05
-3.3132757e-15
7.6099159e-05
-3.7100179e-15
7.6099159e-05
-3.6646639e-15
7.6099159e-05
-4.2567926e-15
7.6099159e-05
-4.4502537e-15
7.6099159e-05
-4.8832399e-15
7.6099159e-05
-4.5640577e-15
7.6099159e-05
-4.8408861e-15
7.6099159e-05
-4.5459459e-15
7.6099159e-05
-4.7552117e-15
7.6099159e-05
-4.5459674e-15
7.6099159e-05
-4.6787198e-15
7.6099159e-05
-4.5334328e-15
7.6099159e-05
-4.5652332e-15
7.6099159e-05
-4.478087e-15
7.6099159e-05
-4.4445173e-15
7.6099159e-05
-4.4177788e-15
7.6099159e-05
-4.3460838e-15
7.6099159e-05
-4.3658604e-15
7.6099159e-05
-4.2675661e-15
7.6099159e-05
-4.3265523e-15
7.6099159e-05
-4.2222625e-15
7.6099159e-05
-4.3249071e-15
7.6099159e-05
-4.2073688e-15
7.6099159e-05
-4.3401638e-15
7.6099159e-05
-4.1923427e-15
7.6099159e-05
-4.3389498e-15
7.6099159e-05
-4.1384951e-15
7.6099159e-05
-4.2836138e-15
7.6099159e-05
-4.0289329e-15
7.6099159e-05
-4.1762892e-15
7.6099159e-05
-3.8842664e-15
7.6099159e-05
-4.0570402e-15
7.6099159e-05
-3.7721109e-15
7.6099159e-05
-3.9753612e-15
7.6099159e-05
-3.6558474e-15
7.6099159e-05
-3.8555525e-15
7.6099159e-05
-3.5785595e-15
7.6099159e-05
-3.8156089e-15
7.6099159e-05
-3.4043839e-15
7.6099159e-05
-3.5257608e-15
7.6099159e-05
-3.3295223e-15
7.6099159e-05
-3.9837744e-15
7.6099159e-05
-4.0403063e-15
7.6099159e-05
-4.2179271e-15
7.6099159e-05
-2.9962668e-15
7.6099159e-05
-1.6424693e-15
7.6099159e-05
5.2769927e-16
7.6099159e-05
1.8691e-15
7.6099159e-05
3.2250122e-15
7.6099159e-05
3.6288995e-15
7.6099159e-05
4.135537e-15
7.6099159e-05
4.1470031e-15
7.6099159e-05
4.2910508e-15
7.6099159e-05
4.200303e-15
7.6099159e-05
4.4248371e-15
7.6099159e-05
4.7082557e-15
7.6099159e-05
5.151626e-15
7.6099159e-05
4.9919104e-15
7.6099159e-05
4.0677163e-15
7.6099159e-05
2.4505436e-15
7.6099159e-05
5.7704096e-16
7.6099159e-05
-9.9954236e-16
7.6099159e-05
-2.115164e-15
7.6099159e-05
-2.5837862e-15
7.6099159e-05
-2.8403505e-15
7.6099159e-05
-2.7045068e-15
7.6099159e-05
-2.7736095e-15
7.6099159e-05
-2.5234046e-15
7.6099159e-05
-2.6738305e-15
7.6099159e-05
-2.3928053e-15
7.6099159e-05
-2.6753819e-15
7.6099159e-05
-2.4269806e-15
7.6099159e-05
-2.8469295e-15
7.6099159e-05
-2.6045454e-15
7.6099159e-05
-3.1585486e-15
7.6099159e-05
-2.9821835e-15
7.6099159e-05
-3.6230292e-15
7.6099159e-05
-3.4085367e-15
7.6099159e-05
-4.0181789e-15
7.6099159e-05
-3.7476506e-15
7.6099159e-05
-4.3148519e-15
7.6099159e-05
-4.0554093e-15
7.6099159e-05
-4.6042933e-15
7.6099159e-05
-4.3932071e-15
7.6099159e-05
-4.8463294e-15
7.6099159e-05
-4.73932e-15
7.6099159e-05
-5.1858771e-15
7.6099159e-05
-5.3342287e-15
7.6099159e-05
-5.4655204e-15
7.6099159e-05
-5.5278414e-15
7.6099159e-05
-5.3519852e-15
7.6099159e-05
-5.6008662e-15
7.6099159e-05
-5.2880695e-15
7.6099159e-05
-5.2551782e-15
7.6099159e-05
-3.6194147e-15
7.6099159e-05
-2.3852756e-15
7.6099159e-05
2.7613547e-16
7.6099159e-05
1.5085762e-15
7.6099159e-05
3.2191721e-15
7.6099159e-05
3.4646204e-15
7.6099159e-05
4.5250645e-15
7.6099159e-05
4.7957713e-15
7.6099159e-05
5.5937828e-15
7.6099159e-05
4.9949206e-15
7.6099159e-05
3.794719e-15
7.6099159e-05
1.1981617e-15
7.6099159e-05
-9.0081751e-16
7.6099159e-05
-2.2698693e-15
7.6099159e-05
-2.0441097e-15
7.6099159e-05
-9.5692466e-16
7.6099159e-05
7.4934627e-16
7.6099159e-05
2.44396e-15
7.6099159e-05
3.9599544e-15
7.6099159e-05
5.0749604e-15
7.6099159e-05
5.0615445e-15
7.6099159e-05
4.2754252e-15
7.6099159e-05
2.3404063e-15
7.6099159e-05
5.039792e-16
7.6099159e-05
-1.5079589e-15
7.6099159e-05
-2.3140165e-15
7.6099159e-05
-3.1404449e-15
7.6099159e-05
-3.2620529e-15
7.6099159e-05
-4.1041097e-15
7.6099159e-05
-4.3763127e-15
7.6099159e-05
-4.6211606e-15
7.6099159e-05
-3.6198215e-15
7.6099159e-05
-2.3618074e-15
7.6099159e-05
-4.2182135e-16
7.6099159e-05
1.1271799e-15
7.6099159e-05
2.7635608e-15
7.6099159e-05
3.5887492e-15
7.6099159e-05
3.9205057e-15
7.6099159e-05
3.0125108e-15
7.6099159e-05
1.4892879e-15
7.6099159e-05
-5.3409979e-16
7.6099159e-05
-2.1565758e-15
7.6099159e-05
-3.1823858e-15
7.6099159e-05
-3.6823992e-15
7.6099159e-05
-3.9625601e-15
7.6099159e-05
-4.4315552e-15
7.6099159e-05
-4.7304457e-15
7.6099159e-05
-4.772419e-15
7.6099159e-05
-3.7439493e-15
7.6099159e-05
-1.932287e-15
7.6099159e-05
6.6378076e-16
7.6099159e-05
2.5479341e-15
7.6099159e-05
3.4770556e-15
7.6099159e-05
2.8064972e-15
7.6099159e-05
1.3171856e-15
7.6099159e-05
-5.8175499e-16
7.6099159e-05
-1.99027e-15
7.6099159e-05
-2.9309041e-15
7.6099159e-05
-3.3261714e-15
7.6099159e-05
-3.4378487e-15
7.6099159e-05
-3.5085049e-15
7.6099159e-05
-3.5155928e-15
7.6099159e-05
-3.5369862e-15
7.6099159e-05
-3.2974539e-15
7.6099159e-05
-3.2860352e-15
7.6099159e-05
-3.3494479e-15
7.6099159e-05
-3.9007704e-15
7.6099159e-05
-4.0301968e-15
7.6099159e-05
-3.8559091e-15
7.6099159e-05
-2.6483612e-15
7.6099159e-05
-1.2038445e-15
7.6099159e-05
6.0011294e-16
7.6099159e-05
1.808328e-15
7.6099159e-05
2.8700927e-15
7.6099159e-05
3.1513217e-15
7.6099159e-05
3.2819065e-15
7.6099159e-05
3.0740829e-15
7.6099159e-05
3.1819483e-15
7.6099159e-05
3.5231658e-15
7.6099159e-05
3.9748823e-15
7.6099159e-05
3.9448312e-15
7.6099159e-05
3.0977237e-15
7.6099159e-05
1.5197516e-15
7.6099159e-05
-4.613402e-16
7.6099159e-05
-2.040455e-15
7.6099159e-05
-3.2599232e-15
7.6099159e-05
-3.7023558e-15
7.6099159e-05
-3.9431167e-15
7.6099159e-05
-3.7982442e-15
7.6099159e-05
-4.0054688e-15
7.6099159e-05
-3.901157e-15
7.6099159e-05
-3.7711086e-15
7.6099159e-05
-3.2684846e-15
7.6099159e-05
-3.8611721e-15
7.6099159e-05
-4.6464255e-15
7.6099159e-05
-4.4734979e-15
-1.8437072e-15
0.00023312986
0.00043770624
0.00018548527
0.0001745987
0.00015018421
9.6939541e-05
0.0001310242
4.9741143e-05
0.00011965162
2.7696012e-05
0.0001131446
1.5916629e-05
0.00010931814
9.0865124e-06
0.00010710183
5.2976387e-06
0.0001058215
3.0015608e-06
0.00010509347
1.7127862e-06
0.00010468612
9.4305354e-07
0.00010446306
5.1623463e-07
0.00010434425
2.7031287e-07
0.00010428311
1.3819463e-07
0.00010425319
6.5915557e-08
0.00010423959
2.9235696e-08
0.0001042342
1.0753276e-08
0.00010423268
2.4051188e-09
0.00010423281
-1.0807779e-09
0.00010423352
-2.1165717e-09
0.00010423431
-2.1446209e-09
0.000104235
-1.7798838e-09
0.00010423553
-1.348464e-09
0.00010423592
-9.6066969e-10
0.00010423618
-6.5782008e-10
0.00010423636
-4.3584153e-10
0.00010423648
-2.816397e-10
0.00010423655
-1.7785121e-10
0.0001042366
-1.1013179e-10
0.00010423662
-6.6893109e-11
0.00010423664
-3.9901262e-11
0.00010423665
-2.3355045e-11
0.00010423666
-1.3407456e-11
0.00010423666
-7.5348486e-12
0.00010423666
-4.1325832e-12
0.00010423666
-2.2021808e-12
0.00010423666
-1.1302328e-12
0.00010423666
-5.53243e-13
0.00010423666
-2.5239392e-13
0.00010423666
-1.0159302e-13
0.00010423666
-2.9416368e-14
0.00010423666
2.6570436e-15
0.00010423666
1.2827202e-14
0.00010423666
1.4362813e-14
0.00010423666
9.9958037e-15
0.00010423666
6.1520986e-15
0.00010423666
1.8783766e-15
0.00010423666
3.1956119e-16
0.00010423666
-2.7998012e-15
0.00010423666
-2.0213278e-15
0.00010423666
-3.7760714e-15
0.00010423666
-3.5963952e-15
0.00010423666
-6.0925287e-15
0.00010423666
-6.1321835e-15
0.00010423666
-6.8202327e-15
0.00010423666
-4.8898522e-15
0.00010423666
-3.3292366e-15
0.00010423666
-1.5037964e-16
0.00010423666
-7.5890108e-17
0.00010423666
2.0391032e-15
0.00010423666
1.2815852e-15
0.00010423666
2.5317085e-15
0.00010423666
1.9551977e-15
0.00010423666
2.8184223e-15
0.00010423666
2.1180539e-15
0.00010423666
2.6719168e-15
0.00010423666
2.6882667e-15
0.00010423666
3.5915374e-15
0.00010423666
4.0811412e-15
0.00010423666
4.8858961e-15
0.00010423666
4.8437983e-15
0.00010423666
5.2350516e-15
0.00010423666
4.977735e-15
0.00010423666
4.9327302e-15
0.00010423666
4.783625e-15
0.00010423666
4.6783492e-15
0.00010423666
4.8005453e-15
0.00010423666
4.6222699e-15
0.00010423666
4.867335e-15
0.00010423666
4.475615e-15
0.00010423666
4.7469164e-15
0.00010423666
4.2438525e-15
0.00010423666
4.6309754e-15
0.00010423666
4.0646155e-15
0.00010423666
4.3373695e-15
0.00010423666
3.6436558e-15
0.00010423666
4.1323109e-15
0.00010423666
3.9558056e-15
0.00010423666
4.7860338e-15
0.00010423666
4.127957e-15
0.00010423666
3.7493821e-15
0.00010423666
1.9138157e-15
0.00010423666
8.4378786e-16
0.00010423666
-8.6538244e-16
0.00010423666
-1.3415696e-15
0.00010423666
-2.4291469e-15
0.00010423666
-2.1595587e-15
0.00010423666
-2.7433082e-15
0.00010423666
-2.2304648e-15
0.00010423666
-2.9278355e-15
0.00010423666
-2.4997669e-15
0.00010423666
-3.2400135e-15
0.00010423666
-2.6044973e-15
0.00010423666
-3.2578383e-15
0.00010423666
-2.5614194e-15
0.00010423666
-3.1999881e-15
0.00010423666
-2.519308e-15
0.00010423666
-2.9845089e-15
0.00010423666
-2.4153076e-15
0.00010423666
-2.8321184e-15
0.00010423666
-2.8645573e-15
0.00010423666
-3.5895377e-15
0.00010423666
-3.9215977e-15
0.00010423666
-4.4026812e-15
0.00010423666
-4.0860229e-15
0.00010423666
-4.3450055e-15
0.00010423666
-3.9839239e-15
0.00010423666
-4.174686e-15
0.00010423666
-3.9424171e-15
0.00010423666
-4.0972195e-15
0.00010423666
-3.9806377e-15
0.00010423666