/*--------------------------------*- C++ -*----------------------------------*\
| =========                 |                                                 |
| \\      /  F ield         | OpenFOAM: The Open Source CFD Toolbox           |
|  \\    /   O peration     | Version:  2206                                  |
|   \\  /    A nd           | Website:  www.openfoam.com                      |
|    \\/     M anipulation  |                                                 |
\*---------------------------------------------------------------------------*/
FoamFile
{
    version     2.0;
    format      ascii;
    arch        "LSB;label=32;scalar=64";
    class       volVectorField;
    location    "14";
    object      U;
}
// * * * * * * * * * * * * * * * * * * * * * * * * * * * * * * * * * * * * * //

dimensions      [0 1 -1 0 0 0 0];

internalField   nonuniform List<vector> 
15000
(
(0.15962853 0.053997678 0)
(0.11557193 0.0064916426 0)
(0.064251363 0.0014144251 0)
(0.055918599 0.00074960635 0)
(0.047595817 0.00028827403 0)
(0.044708798 0.00019884765 0)
(0.042412494 9.0525165e-05 0)
(0.041406637 6.0129919e-05 0)
(0.040707476 2.8980571e-05 0)
(0.04037699 1.8020277e-05 0)
(0.040167797 8.66235e-06 0)
(0.04006866 4.9958494e-06 0)
(0.040011054 2.267729e-06 0)
(0.039985308 1.1739928e-06 0)
(0.039971973 4.4687279e-07 0)
(0.039967049 1.7406674e-07 0)
(0.03996518 1.425665e-08 0)
(0.039965127 -3.0055974e-08 0)
(0.039965544 -4.8576827e-08 0)
(0.039966152 -4.3200473e-08 0)
(0.03996668 -3.5749716e-08 0)
(0.039967111 -2.6073253e-08 0)
(0.039967422 -1.8585507e-08 0)
(0.039967642 -1.2495217e-08 0)
(0.03996779 -8.2671198e-09 0)
(0.039967887 -5.2732412e-09 0)
(0.039967949 -3.3152732e-09 0)
(0.039967988 -2.028574e-09 0)
(0.039968012 -1.2236875e-09 0)
(0.039968026 -7.2135243e-10 0)
(0.039968035 -4.1862385e-10 0)
(0.03996804 -2.3793008e-10 0)
(0.039968042 -1.328751e-10 0)
(0.039968044 -7.2746772e-11 0)
(0.039968045 -3.8736839e-11 0)
(0.039968045 -2.0091286e-11 0)
(0.039968045 -9.9905781e-12 0)
(0.039968046 -5.1716917e-12 0)
(0.039968046 -2.8860789e-12 0)
(0.039968046 -1.7054023e-12 0)
(0.039968046 -8.8393903e-13 0)
(0.039968046 -2.4119573e-13 0)
(0.039968046 1.8873117e-14 0)
(0.039968046 1.9689055e-13 0)
(0.039968046 2.3565195e-14 0)
(0.039968046 -3.7651672e-14 0)
(0.039968046 -2.8173808e-13 0)
(0.039968046 -3.3562403e-13 0)
(0.039968046 -6.6699246e-13 0)
(0.039968046 -5.9253266e-13 0)
(0.039968046 -8.1385453e-13 0)
(0.039968046 -6.8551112e-13 0)
(0.039968046 -8.0264243e-13 0)
(0.039968046 -6.2147608e-13 0)
(0.039968046 -6.7511815e-13 0)
(0.039968046 -5.2372809e-13 0)
(0.039968046 -5.2266724e-13 0)
(0.039968046 -2.5179809e-13 0)
(0.039968046 -2.2405939e-13 0)
(0.039968046 1.5990486e-13 0)
(0.039968046 2.3888521e-13 0)
(0.039968046 4.8206731e-13 0)
(0.039968046 3.8848514e-13 0)
(0.039968046 4.6829718e-13 0)
(0.039968046 3.8265721e-13 0)
(0.039968046 5.1376002e-13 0)
(0.039968046 5.6365509e-13 0)
(0.039968046 6.9733465e-13 0)
(0.039968046 7.2582157e-13 0)
(0.039968046 7.8490598e-13 0)
(0.039968046 7.4655823e-13 0)
(0.039968046 7.5990005e-13 0)
(0.039968046 7.3524417e-13 0)
(0.039968046 7.3144597e-13 0)
(0.039968046 7.3494616e-13 0)
(0.039968046 7.1763877e-13 0)
(0.039968046 7.3753343e-13 0)
(0.039968046 6.8945909e-13 0)
(0.039968046 7.131479e-13 0)
(0.039968046 6.37088e-13 0)
(0.039968046 6.7293339e-13 0)
(0.039968046 5.9172598e-13 0)
(0.039968046 6.5513266e-13 0)
(0.039968046 5.7955791e-13 0)
(0.039968046 6.3130325e-13 0)
(0.039968046 5.0900034e-13 0)
(0.039968046 5.445732e-13 0)
(0.039968046 4.93505e-13 0)
(0.039968046 6.5849317e-13 0)
(0.039968046 6.6463567e-13 0)
(0.039968046 7.3526515e-13 0)
(0.039968046 5.0749985e-13 0)
(0.039968046 3.0139156e-13 0)
(0.039968046 -7.6638496e-14 0)
(0.039968046 -2.40241e-13 0)
(0.039968046 -4.6177873e-13 0)
(0.039968046 -4.4385126e-13 0)
(0.039968046 -5.4167252e-13 0)
(0.039968046 -4.6347278e-13 0)
(0.039968046 -5.5731206e-13 0)
(0.039968046 -4.8705179e-13 0)
(0.039968046 -5.9203145e-13 0)
(0.039968046 -5.1013818e-13 0)
(0.039968046 -6.0774854e-13 0)
(0.039968046 -5.1435075e-13 0)
(0.039968046 -5.9907843e-13 0)
(0.039968046 -5.136523e-13 0)
(0.039968046 -5.902281e-13 0)
(0.039968046 -5.2631669e-13 0)
(0.039968046 -5.8473319e-13 0)
(0.039968046 -5.6743864e-13 0)
(0.039968046 -6.2836684e-13 0)
(0.039968046 -6.3188306e-13 0)
(0.039968046 -6.7334633e-13 0)
(0.039968046 -6.2194883e-13 0)
(0.039968046 -6.605979e-13 0)
(0.039968046 -6.2573387e-13 0)
(0.039968046 -6.5873808e-13 0)
(0.039968046 -6.3281056e-13 0)
(0.039968046 -6.484725e-13 0)
(0.039968046 -6.2692288e-13 0)
(0.039968046 -6.2542967e-13 0)
(0.039968046 -6.1361206e-13 0)
(0.039968046 -6.03957e-13 0)
(0.039968046 -6.0261935e-13 0)
(0.039968046 -5.8776697e-13 0)
(0.039968046 -5.9409186e-13 0)
(0.039968046 -5.7508544e-13 0)
(0.039968046 -5.8763554e-13 0)
(0.039968046 -5.6729405e-13 0)
(0.039968046 -5.8619698e-13 0)
(0.039968046 -5.6310104e-13 0)
(0.039968046 -5.8608353e-13 0)
(0.039968046 -5.5855857e-13 0)
(0.039968046 -5.8392455e-13 0)
(0.039968046 -5.4951299e-13 0)
(0.039968046 -5.7492525e-13 0)
(0.039968046 -5.3335287e-13 0)
(0.039968046 -5.5906553e-13 0)
(0.039968046 -5.1214234e-13 0)
(0.039968046 -5.4058508e-13 0)
(0.039968046 -4.9599617e-13 0)
(0.039968046 -5.3060735e-13 0)
(0.039968046 -4.8361457e-13 0)
(0.039968046 -5.1738918e-13 0)
(0.039968046 -4.7802241e-13 0)
(0.039968046 -5.2196088e-13 0)
(0.039968046 -4.6476619e-13 0)
(0.039968046 -4.7753516e-13 0)
(0.039968046 -4.3419518e-13 0)
(0.039968046 -5.3174095e-13 0)
(0.039968046 -5.7352525e-13 0)
(0.039968046 -6.5780628e-13 0)
(0.039968046 -5.365303e-13 0)
(0.039968046 -3.5501917e-13 0)
(0.039968046 -2.0053786e-14 0)
(0.039968046 2.109757e-13 0)
(0.039968046 4.2990489e-13 0)
(0.039968046 5.032335e-13 0)
(0.039968046 5.8375099e-13 0)
(0.039968046 5.9296236e-13 0)
(0.039968046 6.1053105e-13 0)
(0.039968046 5.8300724e-13 0)
(0.039968046 5.8935397e-13 0)
(0.039968046 6.2505795e-13 0)
(0.039968046 7.1418814e-13 0)
(0.039968046 7.505539e-13 0)
(0.039968046 6.7164317e-13 0)
(0.039968046 4.6466833e-13 0)
(0.039968046 1.6995799e-13 0)
(0.039968046 -8.689888e-14 0)
(0.039968046 -2.7517107e-13 0)
(0.039968046 -3.5170961e-13 0)
(0.039968046 -4.0341845e-13 0)
(0.039968046 -3.8988752e-13 0)
(0.039968046 -4.1431285e-13 0)
(0.039968046 -3.8036422e-13 0)
(0.039968046 -4.0974442e-13 0)
(0.039968046 -3.6578232e-13 0)
(0.039968046 -4.1147009e-13 0)
(0.039968046 -3.7231707e-13 0)
(0.039968046 -4.371345e-13 0)
(0.039968046 -3.9585902e-13 0)
(0.039968046 -4.7594451e-13 0)
(0.039968046 -4.4329972e-13 0)
(0.039968046 -5.3734747e-13 0)
(0.039968046 -5.0131946e-13 0)
(0.039968046 -5.8972538e-13 0)
(0.039968046 -5.4404704e-13 0)
(0.039968046 -6.278631e-13 0)
(0.039968046 -5.8760155e-13 0)
(0.039968046 -6.7398802e-13 0)
(0.039968046 -6.4909864e-13 0)
(0.039968046 -7.2690052e-13 0)
(0.039968046 -7.2333151e-13 0)
(0.039968046 -8.0424655e-13 0)
(0.039968046 -8.4217608e-13 0)
(0.039968046 -8.6930034e-13 0)
(0.039968046 -8.7100072e-13 0)
(0.039968046 -8.2272332e-13 0)
(0.039968046 -8.432719e-13 0)
(0.039968046 -8.0347219e-13 0)
(0.039968046 -8.3277267e-13 0)
(0.039968046 -6.2932861e-13 0)
(0.039968046 -4.6026521e-13 0)
(0.039968046 -4.0139822e-14 0)
(0.039968046 1.8256712e-13 0)
(0.039968046 4.5450746e-13 0)
(0.039968046 4.8583645e-13 0)
(0.039968046 6.2968568e-13 0)
(0.039968046 6.779585e-13 0)
(0.039968046 8.4046358e-13 0)
(0.039968046 8.1984669e-13 0)
(0.039968046 7.0753058e-13 0)
(0.039968046 3.1897455e-13 0)
(0.039968046 -4.7811458e-14 0)
(0.039968046 -3.2913021e-13 0)
(0.039968046 -3.5357776e-13 0)
(0.039968046 -2.1870218e-13 0)
(0.039968046 3.3532438e-14 0)
(0.039968046 2.8425625e-13 0)
(0.039968046 5.1599239e-13 0)
(0.039968046 7.1601911e-13 0)
(0.039968046 7.8138838e-13 0)
(0.039968046 7.3467263e-13 0)
(0.039968046 4.8992725e-13 0)
(0.039968046 1.9906453e-13 0)
(0.039968046 -1.3811259e-13 0)
(0.039968046 -2.9408192e-13 0)
(0.039968046 -4.2144707e-13 0)
(0.039968046 -4.281661e-13 0)
(0.039968046 -5.51295e-13 0)
(0.039968046 -6.2407102e-13 0)
(0.039968046 -7.2359961e-13 0)
(0.039968046 -6.3527101e-13 0)
(0.039968046 -4.7531966e-13 0)
(0.039968046 -1.7635691e-13 0)
(0.039968046 6.7168414e-14 0)
(0.039968046 3.2714024e-13 0)
(0.039968046 4.8658607e-13 0)
(0.039968046 5.9484888e-13 0)
(0.039968046 5.2774364e-13 0)
(0.039968046 3.3506793e-13 0)
(0.039968046 2.7653587e-14 0)
(0.039968046 -2.431703e-13 0)
(0.039968046 -4.1699161e-13 0)
(0.039968046 -4.9539235e-13 0)
(0.039968046 -5.2766809e-13 0)
(0.039968046 -5.9719737e-13 0)
(0.039968046 -6.6988645e-13 0)
(0.039968046 -7.3603796e-13 0)
(0.039968046 -6.5359971e-13 0)
(0.039968046 -4.2469562e-13 0)
(0.039968046 -1.6167351e-14 0)
(0.039968046 3.3210411e-13 0)
(0.039968046 5.4918675e-13 0)
(0.039968046 5.1128554e-13 0)
(0.039968046 3.1010955e-13 0)
(0.039968046 1.3566508e-14 0)
(0.039968046 -2.1350918e-13 0)
(0.039968046 -3.6428098e-13 0)
(0.039968046 -4.2591042e-13 0)
(0.039968046 -4.4713822e-13 0)
(0.039968046 -4.6296693e-13 0)
(0.039968046 -4.7386307e-13 0)
(0.039968046 -4.8696447e-13 0)
(0.039968046 -4.5534129e-13 0)
(0.039968046 -4.4162558e-13 0)
(0.039968046 -4.3630253e-13 0)
(0.039968046 -5.2194942e-13 0)
(0.039968046 -5.8184736e-13 0)
(0.039968046 -6.2040088e-13 0)
(0.039968046 -5.0290139e-13 0)
(0.039968046 -3.0964337e-13 0)
(0.039968046 -3.065109e-14 0)
(0.039968046 1.6580773e-13 0)
(0.039968046 3.3862682e-13 0)
(0.039968046 3.9296396e-13 0)
(0.039968046 4.2424695e-13 0)
(0.039968046 3.9552359e-13 0)
(0.039968046 4.0608249e-13 0)
(0.039968046 4.60627e-13 0)
(0.039968046 5.6007736e-13 0)
(0.039968046 6.1585667e-13 0)
(0.039968046 5.5565051e-13 0)
(0.039968046 3.5323676e-13 0)
(0.039968046 4.9978661e-14 0)
(0.039968046 -2.059018e-13 0)
(0.039968046 -4.0501719e-13 0)
(0.039968046 -4.8331617e-13 0)
(0.039968046 -5.2491662e-13 0)
(0.039968046 -5.0927744e-13 0)
(0.039968046 -5.4380954e-13 0)
(0.039968046 -5.4375869e-13 0)
(0.039968046 -5.3611394e-13 0)
(0.039968046 -4.4485392e-13 0)
(0.039968046 -4.9379287e-13 0)
(0.039968046 -6.3261486e-13 0)
(0.039968046 -7.0356766e-13 0)
(0.039968046 -3.5281917e-13 0)
(0.36732383 0.14062829 0)
(0.29754389 0.025079388 0)
(0.1860793 0.0083694734 0)
(0.16132807 0.0041218884 0)
(0.13901859 0.0019375924 0)
(0.13040448 0.0011770336 0)
(0.12396461 0.00061113597 0)
(0.12095998 0.00037192413 0)
(0.1189454 0.00019726881 0)
(0.11794826 0.00011564261 0)
(0.11733081 6.0260713e-05 0)
(0.11702581 3.3416196e-05 0)
(0.11685066 1.6512301e-05 0)
(0.11676842 8.3933354e-06 0)
(0.1167257 3.6636705e-06 0)
(0.11670834 1.5210198e-06 0)
(0.1167012 3.9951826e-07 0)
(0.11669986 -2.7995122e-08 0)
(0.1167004 -1.9893748e-07 0)
(0.11670175 -2.158124e-07 0)
(0.11670304 -1.9029443e-07 0)
(0.11670415 -1.4605218e-07 0)
(0.11670497 -1.0644933e-07 0)
(0.11670557 -7.3383042e-08 0)
(0.11670597 -4.9229536e-08 0)
(0.11670624 -3.1957617e-08 0)
(0.11670642 -2.0339984e-08 0)
(0.11670653 -1.2638774e-08 0)
(0.11670659 -7.7202298e-09 0)
(0.11670664 -4.6198982e-09 0)
(0.11670666 -2.7175303e-09 0)
(0.11670667 -1.5667759e-09 0)
(0.11670668 -8.8600186e-10 0)
(0.11670669 -4.9016279e-10 0)
(0.11670669 -2.6399706e-10 0)
(0.11670669 -1.3787287e-10 0)
(0.11670669 -6.8938258e-11 0)
(0.11670669 -3.3491701e-11 0)
(0.11670669 -1.5804027e-11 0)
(0.11670669 -7.0560931e-12 0)
(0.11670669 -2.4102783e-12 0)
(0.11670669 1.5791484e-13 0)
(0.11670669 1.006838e-12 0)
(0.11670669 1.2811941e-12 0)
(0.11670669 5.1712852e-13 0)
(0.11670669 4.5189284e-14 0)
(0.11670669 -7.4659425e-13 0)
(0.11670669 -9.3296734e-13 0)
(0.11670669 -1.8325983e-12 0)
(0.11670669 -1.5415471e-12 0)
(0.11670669 -2.0293e-12 0)
(0.11670669 -1.7265799e-12 0)
(0.11670669 -2.1668732e-12 0)
(0.11670669 -1.8530467e-12 0)
(0.11670669 -2.0146294e-12 0)
(0.11670669 -1.5715773e-12 0)
(0.11670669 -1.4010138e-12 0)
(0.11670669 -5.6345389e-13 0)
(0.11670669 -4.6230412e-13 0)
(0.11670669 4.8683916e-13 0)
(0.11670669 5.8105999e-13 0)
(0.11670669 1.1937945e-12 0)
(0.11670669 1.011738e-12 0)
(0.11670669 1.2665012e-12 0)
(0.11670669 1.0441536e-12 0)
(0.11670669 1.3127266e-12 0)
(0.11670669 1.3801141e-12 0)
(0.11670669 1.6848404e-12 0)
(0.11670669 1.7738778e-12 0)
(0.11670669 1.967521e-12 0)
(0.11670669 1.9000445e-12 0)
(0.11670669 1.984756e-12 0)
(0.11670669 1.9088303e-12 0)
(0.11670669 1.9073909e-12 0)
(0.11670669 1.8849683e-12 0)
(0.11670669 1.8522606e-12 0)
(0.11670669 1.8894983e-12 0)
(0.11670669 1.7993235e-12 0)
(0.11670669 1.8552854e-12 0)
(0.11670669 1.6920823e-12 0)
(0.11670669 1.7700013e-12 0)
(0.11670669 1.5887716e-12 0)
(0.11670669 1.7308134e-12 0)
(0.11670669 1.5537298e-12 0)
(0.11670669 1.6603236e-12 0)
(0.11670669 1.3822203e-12 0)
(0.11670669 1.489243e-12 0)
(0.11670669 1.4091708e-12 0)
(0.11670669 1.79534e-12 0)
(0.11670669 1.7514292e-12 0)
(0.11670669 1.7924131e-12 0)
(0.11670669 1.1608442e-12 0)
(0.11670669 6.1494689e-13 0)
(0.11670669 -2.6407858e-13 0)
(0.11670669 -6.5720321e-13 0)
(0.11670669 -1.1767282e-12 0)
(0.11670669 -1.1344593e-12 0)
(0.11670669 -1.3572165e-12 0)
(0.11670669 -1.1695827e-12 0)
(0.11670669 -1.3971996e-12 0)
(0.11670669 -1.2364835e-12 0)
(0.11670669 -1.4869023e-12 0)
(0.11670669 -1.2827887e-12 0)
(0.11670669 -1.508816e-12 0)
(0.11670669 -1.2807868e-12 0)
(0.11670669 -1.4882599e-12 0)
(0.11670669 -1.2811093e-12 0)
(0.11670669 -1.4604026e-12 0)
(0.11670669 -1.3002713e-12 0)
(0.11670669 -1.4368375e-12 0)
(0.11670669 -1.4112589e-12 0)
(0.11670669 -1.584812e-12 0)
(0.11670669 -1.6286191e-12 0)
(0.11670669 -1.7472757e-12 0)
(0.11670669 -1.6353111e-12 0)
(0.11670669 -1.7288996e-12 0)
(0.11670669 -1.6369093e-12 0)
(0.11670669 -1.7110686e-12 0)
(0.11670669 -1.6453663e-12 0)
(0.11670669 -1.6842244e-12 0)
(0.11670669 -1.6357856e-12 0)
(0.11670669 -1.6342474e-12 0)
(0.11670669 -1.6072828e-12 0)
(0.11670669 -1.5833563e-12 0)
(0.11670669 -1.5804416e-12 0)
(0.11670669 -1.5439099e-12 0)
(0.11670669 -1.5593874e-12 0)
(0.11670669 -1.5135455e-12 0)
(0.11670669 -1.5435258e-12 0)
(0.11670669 -1.4957445e-12 0)
(0.11670669 -1.5415676e-12 0)
(0.11670669 -1.4889232e-12 0)
(0.11670669 -1.5448735e-12 0)
(0.11670669 -1.4819902e-12 0)
(0.11670669 -1.5426836e-12 0)
(0.11670669 -1.46236e-12 0)
(0.11670669 -1.522229e-12 0)
(0.11670669 -1.4234912e-12 0)
(0.11670669 -1.4833212e-12 0)
(0.11670669 -1.3717427e-12 0)
(0.11670669 -1.4398589e-12 0)
(0.11670669 -1.3327007e-12 0)
(0.11670669 -1.4131927e-12 0)
(0.11670669 -1.2957761e-12 0)
(0.11670669 -1.373825e-12 0)
(0.11670669 -1.2748083e-12 0)
(0.11670669 -1.3706083e-12 0)
(0.11670669 -1.222872e-12 0)
(0.11670669 -1.2618918e-12 0)
(0.11670669 -1.1794853e-12 0)
(0.11670669 -1.4248932e-12 0)
(0.11670669 -1.4802127e-12 0)
(0.11670669 -1.5882737e-12 0)
(0.11670669 -1.1979576e-12 0)
(0.11670669 -6.9793717e-13 0)
(0.11670669 1.0390384e-13 0)
(0.11670669 6.4759167e-13 0)
(0.11670669 1.1676579e-12 0)
(0.11670669 1.3383126e-12 0)
(0.11670669 1.5260626e-12 0)
(0.11670669 1.5320791e-12 0)
(0.11670669 1.5688856e-12 0)
(0.11670669 1.5169949e-12 0)
(0.11670669 1.5636819e-12 0)
(0.11670669 1.6731781e-12 0)
(0.11670669 1.8559415e-12 0)
(0.11670669 1.8488239e-12 0)
(0.11670669 1.561073e-12 0)
(0.11670669 9.8222959e-13 0)
(0.11670669 2.7832605e-13 0)
(0.11670669 -3.2968365e-13 0)
(0.11670669 -7.7204166e-13 0)
(0.11670669 -9.5292297e-13 0)
(0.11670669 -1.066622e-12 0)
(0.11670669 -1.0189548e-12 0)
(0.11670669 -1.0610533e-12 0)
(0.11670669 -9.6932336e-13 0)
(0.11670669 -1.0331647e-12 0)
(0.11670669 -9.2649212e-13 0)
(0.11670669 -1.0348846e-12 0)
(0.11670669 -9.3957896e-13 0)
(0.11670669 -1.0968446e-12 0)
(0.11670669 -9.9929347e-13 0)
(0.11670669 -1.2004746e-12 0)
(0.11670669 -1.1265444e-12 0)
(0.11670669 -1.3589113e-12 0)
(0.11670669 -1.2713835e-12 0)
(0.11670669 -1.4914279e-12 0)
(0.11670669 -1.3845399e-12 0)
(0.11670669 -1.5925999e-12 0)
(0.11670669 -1.499225e-12 0)
(0.11670669 -1.7084617e-12 0)
(0.11670669 -1.6448879e-12 0)
(0.11670669 -1.8272222e-12 0)
(0.11670669 -1.8107643e-12 0)
(0.11670669 -1.9976924e-12 0)
(0.11670669 -2.0735719e-12 0)
(0.11670669 -2.1332546e-12 0)
(0.11670669 -2.1450176e-12 0)
(0.11670669 -2.0613473e-12 0)
(0.11670669 -2.1375045e-12 0)
(0.11670669 -2.0241668e-12 0)
(0.11670669 -2.0277435e-12 0)
(0.11670669 -1.4481014e-12 0)
(0.11670669 -9.7469608e-13 0)
(0.11670669 3.0457241e-14 0)
(0.11670669 5.459768e-13 0)
(0.11670669 1.1905866e-12 0)
(0.11670669 1.2884068e-12 0)
(0.11670669 1.6624976e-12 0)
(0.11670669 1.7763129e-12 0)
(0.11670669 2.1013342e-12 0)
(0.11670669 1.9393417e-12 0)
(0.11670669 1.5457342e-12 0)
(0.11670669 5.7593553e-13 0)
(0.11670669 -2.4437167e-13 0)
(0.11670669 -8.2999251e-13 0)
(0.11670669 -7.8955388e-13 0)
(0.11670669 -4.102824e-13 0)
(0.11670669 2.1771625e-13 0)
(0.11670669 8.5579947e-13 0)
(0.11670669 1.4342791e-12 0)
(0.11670669 1.8911312e-12 0)
(0.11670669 1.9465268e-12 0)
(0.11670669 1.7044127e-12 0)
(0.11670669 1.0289266e-12 0)
(0.11670669 3.1034217e-13 0)
(0.11670669 -4.669006e-13 0)
(0.11670669 -8.1581261e-13 0)
(0.11670669 -1.128096e-12 0)
(0.11670669 -1.1712678e-12 0)
(0.11670669 -1.4814967e-12 0)
(0.11670669 -1.6151815e-12 0)
(0.11670669 -1.7629569e-12 0)
(0.11670669 -1.4340649e-12 0)
(0.11670669 -9.987418e-13 0)
(0.11670669 -2.641851e-13 0)
(0.11670669 3.1716978e-13 0)
(0.11670669 9.5435527e-13 0)
(0.11670669 1.3024224e-12 0)
(0.11670669 1.4687631e-12 0)
(0.11670669 1.2012528e-12 0)
(0.11670669 6.5027465e-13 0)
(0.11670669 -9.4419343e-14 0)
(0.11670669 -7.3728414e-13 0)
(0.11670669 -1.1400292e-12 0)
(0.11670669 -1.3308435e-12 0)
(0.11670669 -1.4273198e-12 0)
(0.11670669 -1.6002574e-12 0)
(0.11670669 -1.7364086e-12 0)
(0.11670669 -1.803772e-12 0)
(0.11670669 -1.4868076e-12 0)
(0.11670669 -8.406374e-13 0)
(0.11670669 1.3348043e-13 0)
(0.11670669 9.1401811e-13 0)
(0.11670669 1.3279731e-12 0)
(0.11670669 1.1379859e-12 0)
(0.11670669 6.04508e-13 0)
(0.11670669 -1.130482e-13 0)
(0.11670669 -6.5407137e-13 0)
(0.11670669 -1.0230328e-12 0)
(0.11670669 -1.1701975e-12 0)
(0.11670669 -1.2173898e-12 0)
(0.11670669 -1.2447536e-12 0)
(0.11670669 -1.2573721e-12 0)
(0.11670669 -1.2685165e-12 0)
(0.11670669 -1.1837836e-12 0)
(0.11670669 -1.1660464e-12 0)
(0.11670669 -1.182255e-12 0)
(0.11670669 -1.3917665e-12 0)
(0.11670669 -1.4831368e-12 0)
(0.11670669 -1.4773741e-12 0)
(0.11670669 -1.0864719e-12 0)
(0.11670669 -5.7701526e-13 0)
(0.11670669 1.004087e-13 0)
(0.11670669 5.6458267e-13 0)
(0.11670669 9.7864739e-13 0)
(0.11670669 1.0955703e-12 0)
(0.11670669 1.151963e-12 0)
(0.11670669 1.0770598e-12 0)
(0.11670669 1.1151906e-12 0)
(0.11670669 1.246416e-12 0)
(0.11670669 1.4483814e-12 0)
(0.11670669 1.4968556e-12 0)
(0.11670669 1.2335692e-12 0)
(0.11670669 6.8781365e-13 0)
(0.11670669 -5.6258696e-14 0)
(0.11670669 -6.6170732e-13 0)
(0.11670669 -1.1349556e-12 0)
(0.11670669 -1.3155763e-12 0)
(0.11670669 -1.4045146e-12 0)
(0.11670669 -1.3589977e-12 0)
(0.11670669 -1.4355292e-12 0)
(0.11670669 -1.4165155e-12 0)
(0.11670669 -1.3673419e-12 0)
(0.11670669 -1.1666401e-12 0)
(0.11670669 -1.3584641e-12 0)
(0.11670669 -1.6888072e-12 0)
(0.11670669 -1.7010228e-12 0)
(0.11670669 -7.506283e-13 0)
(0.50390834 0.19019021 0)
(0.4384704 0.05043151 0)
(0.29767008 0.022055329 0)
(0.25944374 0.010780117 0)
(0.22598939 0.0055621559 0)
(0.21213187 0.0032308132 0)
(0.20205719 0.0017733009 0)
(0.19716897 0.0010457453 0)
(0.19394744 0.00057679763 0)
(0.19230772 0.00033133379 0)
(0.19130242 0.00017832789 0)
(0.19079327 9.7725243e-05 0)
(0.19050201 4.9922189e-05 0)
(0.1903612 2.5326199e-05 0)
(0.19028762 1.1619819e-05 0)
(0.19025609 4.9686379e-06 0)
(0.1902425 1.5962213e-06 0)
(0.19023894 1.7344681e-07 0)
(0.19023899 -3.9971797e-07 0)
(0.19024063 -5.2237738e-07 0)
(0.19024241 -4.8487473e-07 0)
(0.19024402 -3.8484419e-07 0)
(0.19024524 -2.8491159e-07 0)
(0.19024615 -1.9935065e-07 0)
(0.19024677 -1.3489818e-07 0)
(0.19024719 -8.8403157e-08 0)
(0.19024746 -5.6644225e-08 0)
(0.19024763 -3.5467094e-08 0)
(0.19024774 -2.1800897e-08 0)
(0.1902478 -1.31395e-08 0)
(0.19024784 -7.7800642e-09 0)
(0.19024787 -4.5182788e-09 0)
(0.19024788 -2.5734049e-09 0)
(0.19024789 -1.4340477e-09 0)
(0.19024789 -7.7887464e-10 0)
(0.19024789 -4.1029521e-10 0)
(0.1902479 -2.0754164e-10 0)
(0.1902479 -1.0059277e-10 0)
(0.1902479 -4.6050927e-11 0)
(0.1902479 -1.8957059e-11 0)
(0.1902479 -5.4914534e-12 0)
(0.1902479 1.0459565e-12 0)
(0.1902479 3.154282e-12 0)
(0.1902479 3.5212516e-12 0)
(0.1902479 2.1102013e-12 0)
(0.1902479 9.9471162e-13 0)
(0.1902479 -4.942997e-13 0)
(0.1902479 -1.072053e-12 0)
(0.1902479 -2.4317002e-12 0)
(0.1902479 -2.1357548e-12 0)
(0.1902479 -2.8291832e-12 0)
(0.1902479 -2.5254738e-12 0)
(0.1902479 -3.1864333e-12 0)
(0.1902479 -2.8669844e-12 0)
(0.1902479 -3.0918252e-12 0)
(0.1902479 -2.4892021e-12 0)
(0.1902479 -2.1679458e-12 0)
(0.1902479 -9.4529101e-13 0)
(0.1902479 -6.5743851e-13 0)
(0.1902479 6.7583865e-13 0)
(0.1902479 8.6597504e-13 0)
(0.1902479 1.6965751e-12 0)
(0.1902479 1.4931704e-12 0)
(0.1902479 1.8159235e-12 0)
(0.1902479 1.5190768e-12 0)
(0.1902479 1.848577e-12 0)
(0.1902479 1.9505782e-12 0)
(0.1902479 2.365094e-12 0)
(0.1902479 2.5177351e-12 0)
(0.1902479 2.8067241e-12 0)
(0.1902479 2.766228e-12 0)
(0.1902479 2.8943013e-12 0)
(0.1902479 2.8000033e-12 0)
(0.1902479 2.7860616e-12 0)
(0.1902479 2.7500429e-12 0)
(0.1902479 2.7029501e-12 0)
(0.1902479 2.7540492e-12 0)
(0.1902479 2.6402848e-12 0)
(0.1902479 2.7140985e-12 0)
(0.1902479 2.5004392e-12 0)
(0.1902479 2.5971291e-12 0)
(0.1902479 2.3603505e-12 0)
(0.1902479 2.5430728e-12 0)
(0.1902479 2.314374e-12 0)
(0.1902479 2.4411707e-12 0)
(0.1902479 2.0724427e-12 0)
(0.1902479 2.208025e-12 0)
(0.1902479 2.1366333e-12 0)
(0.1902479 2.6680472e-12 0)
(0.1902479 2.6163254e-12 0)
(0.1902479 2.6079448e-12 0)
(0.1902479 1.6845699e-12 0)
(0.1902479 8.3900767e-13 0)
(0.1902479 -4.0929747e-13 0)
(0.1902479 -1.0106924e-12 0)
(0.1902479 -1.7273432e-12 0)
(0.1902479 -1.6984488e-12 0)
(0.1902479 -1.979955e-12 0)
(0.1902479 -1.7406413e-12 0)
(0.1902479 -2.0335765e-12 0)
(0.1902479 -1.8370826e-12 0)
(0.1902479 -2.1616528e-12 0)
(0.1902479 -1.8949335e-12 0)
(0.1902479 -2.1818534e-12 0)
(0.1902479 -1.8789616e-12 0)
(0.1902479 -2.1453565e-12 0)
(0.1902479 -1.8694174e-12 0)
(0.1902479 -2.0987051e-12 0)
(0.1902479 -1.8811723e-12 0)
(0.1902479 -2.0570988e-12 0)
(0.1902479 -2.0344718e-12 0)
(0.1902479 -2.287571e-12 0)
(0.1902479 -2.3712476e-12 0)
(0.1902479 -2.5492766e-12 0)
(0.1902479 -2.4137822e-12 0)
(0.1902479 -2.5422391e-12 0)
(0.1902479 -2.4162473e-12 0)
(0.1902479 -2.5135995e-12 0)
(0.1902479 -2.4214073e-12 0)
(0.1902479 -2.4752916e-12 0)
(0.1902479 -2.4066847e-12 0)
(0.1902479 -2.408871e-12 0)
(0.1902479 -2.3667924e-12 0)
(0.1902479 -2.3408056e-12 0)
(0.1902479 -2.3297195e-12 0)
(0.1902479 -2.2886128e-12 0)
(0.1902479 -2.3008013e-12 0)
(0.1902479 -2.2488754e-12 0)
(0.1902479 -2.2798023e-12 0)
(0.1902479 -2.2273107e-12 0)
(0.1902479 -2.2792797e-12 0)
(0.1902479 -2.2221651e-12 0)
(0.1902479 -2.2880135e-12 0)
(0.1902479 -2.2170602e-12 0)
(0.1902479 -2.2881366e-12 0)
(0.1902479 -2.1922696e-12 0)
(0.1902479 -2.2603983e-12 0)
(0.1902479 -2.1386106e-12 0)
(0.1902479 -2.2059872e-12 0)
(0.1902479 -2.0660695e-12 0)
(0.1902479 -2.1451631e-12 0)
(0.1902479 -2.0118409e-12 0)
(0.1902479 -2.1080322e-12 0)
(0.1902479 -1.9585658e-12 0)
(0.1902479 -2.0501469e-12 0)
(0.1902479 -1.9267992e-12 0)
(0.1902479 -2.042864e-12 0)
(0.1902479 -1.8473378e-12 0)
(0.1902479 -1.8854196e-12 0)
(0.1902479 -1.7932878e-12 0)
(0.1902479 -2.1363195e-12 0)
(0.1902479 -2.2226872e-12 0)
(0.1902479 -2.335546e-12 0)
(0.1902479 -1.7456469e-12 0)
(0.1902479 -9.7688362e-13 0)
(0.1902479 1.8723151e-13 0)
(0.1902479 9.8426093e-13 0)
(0.1902479 1.7197533e-12 0)
(0.1902479 1.9720239e-12 0)
(0.1902479 2.229637e-12 0)
(0.1902479 2.2371462e-12 0)
(0.1902479 2.2878734e-12 0)
(0.1902479 2.2225165e-12 0)
(0.1902479 2.3084318e-12 0)
(0.1902479 2.4822426e-12 0)
(0.1902479 2.7439089e-12 0)
(0.1902479 2.7048083e-12 0)
(0.1902479 2.250374e-12 0)
(0.1902479 1.3709374e-12 0)
(0.1902479 3.4253946e-13 0)
(0.1902479 -5.5384537e-13 0)
(0.1902479 -1.1815434e-12 0)
(0.1902479 -1.4550756e-12 0)
(0.1902479 -1.5993253e-12 0)
(0.1902479 -1.5391456e-12 0)
(0.1902479 -1.5770701e-12 0)
(0.1902479 -1.4598866e-12 0)
(0.1902479 -1.53242e-12 0)
(0.1902479 -1.3996558e-12 0)
(0.1902479 -1.5344211e-12 0)
(0.1902479 -1.416492e-12 0)
(0.1902479 -1.6170023e-12 0)
(0.1902479 -1.4982435e-12 0)
(0.1902479 -1.760244e-12 0)
(0.1902479 -1.6782582e-12 0)
(0.1902479 -1.9835512e-12 0)
(0.1902479 -1.8845406e-12 0)
(0.1902479 -2.1721737e-12 0)
(0.1902479 -2.0426066e-12 0)
(0.1902479 -2.309775e-12 0)
(0.1902479 -2.1922071e-12 0)
(0.1902479 -2.457301e-12 0)
(0.1902479 -2.3690156e-12 0)
(0.1902479 -2.5915033e-12 0)
(0.1902479 -2.5582076e-12 0)
(0.1902479 -2.7894615e-12 0)
(0.1902479 -2.878343e-12 0)
(0.1902479 -2.944524e-12 0)
(0.1902479 -2.9528128e-12 0)
(0.1902479 -2.8650898e-12 0)
(0.1902479 -3.0015077e-12 0)
(0.1902479 -2.8940403e-12 0)
(0.1902479 -2.8970349e-12 0)
(0.1902479 -2.0918874e-12 0)
(0.1902479 -1.3747321e-12 0)
(0.1902479 4.2419473e-14 0)
(0.1902479 8.0480063e-13 0)
(0.1902479 1.698815e-12 0)
(0.1902479 1.870037e-12 0)
(0.1902479 2.3938743e-12 0)
(0.1902479 2.5839037e-12 0)
(0.1902479 3.0214494e-12 0)
(0.1902479 2.7749121e-12 0)
(0.1902479 2.1436401e-12 0)
(0.1902479 7.3004941e-13 0)
(0.1902479 -4.7367602e-13 0)
(0.1902479 -1.2844797e-12 0)
(0.1902479 -1.2067868e-12 0)
(0.1902479 -6.227381e-13 0)
(0.1902479 3.0198125e-13 0)
(0.1902479 1.2374385e-12 0)
(0.1902479 2.0772596e-12 0)
(0.1902479 2.7229212e-12 0)
(0.1902479 2.7804879e-12 0)
(0.1902479 2.3928362e-12 0)
(0.1902479 1.3982899e-12 0)
(0.1902479 3.4687475e-13 0)
(0.1902479 -7.5161717e-13 0)
(0.1902479 -1.2523632e-12 0)
(0.1902479 -1.6794522e-12 0)
(0.1902479 -1.756767e-12 0)
(0.1902479 -2.1890799e-12 0)
(0.1902479 -2.3864945e-12 0)
(0.1902479 -2.550729e-12 0)
(0.1902479 -2.0488297e-12 0)
(0.1902479 -1.3735744e-12 0)
(0.1902479 -3.0535181e-13 0)
(0.1902479 5.5767499e-13 0)
(0.1902479 1.4768341e-12 0)
(0.1902479 1.9756541e-12 0)
(0.1902479 2.1863325e-12 0)
(0.1902479 1.7589727e-12 0)
(0.1902479 9.225414e-13 0)
(0.1902479 -1.7411139e-13 0)
(0.1902479 -1.1058943e-12 0)
(0.1902479 -1.6814492e-12 0)
(0.1902479 -1.9542608e-12 0)
(0.1902479 -2.1012682e-12 0)
(0.1902479 -2.3528039e-12 0)
(0.1902479 -2.5513979e-12 0)
(0.1902479 -2.6261566e-12 0)
(0.1902479 -2.1401227e-12 0)
(0.1902479 -1.1641647e-12 0)
(0.1902479 2.5302238e-13 0)
(0.1902479 1.3705232e-12 0)
(0.1902479 1.9272988e-12 0)
(0.1902479 1.6153355e-12 0)
(0.1902479 8.048603e-13 0)
(0.1902479 -2.5010199e-13 0)
(0.1902479 -1.0428972e-12 0)
(0.1902479 -1.5762224e-12 0)
(0.1902479 -1.7925513e-12 0)
(0.1902479 -1.8568985e-12 0)
(0.1902479 -1.8932537e-12 0)
(0.1902479 -1.9083849e-12 0)
(0.1902479 -1.9188925e-12 0)
(0.1902479 -1.7970571e-12 0)
(0.1902479 -1.7715947e-12 0)
(0.1902479 -1.809615e-12 0)
(0.1902479 -2.1092733e-12 0)
(0.1902479 -2.2316181e-12 0)
(0.1902479 -2.1732288e-12 0)
(0.1902479 -1.563084e-12 0)
(0.1902479 -7.7020377e-13 0)
(0.1902479 2.3729018e-13 0)
(0.1902479 9.3231254e-13 0)
(0.1902479 1.5299201e-12 0)
(0.1902479 1.7058018e-12 0)
(0.1902479 1.7731382e-12 0)
(0.1902479 1.6645057e-12 0)
(0.1902479 1.7141264e-12 0)
(0.1902479 1.9060833e-12 0)
(0.1902479 2.1841568e-12 0)
(0.1902479 2.2201185e-12 0)
(0.1902479 1.7945677e-12 0)
(0.1902479 9.6238507e-13 0)
(0.1902479 -1.3882295e-13 0)
(0.1902479 -1.0256265e-12 0)
(0.1902479 -1.7109153e-12 0)
(0.1902479 -1.9744397e-12 0)
(0.1902479 -2.096896e-12 0)
(0.1902479 -2.031973e-12 0)
(0.1902479 -2.1353488e-12 0)
(0.1902479 -2.1095686e-12 0)
(0.1902479 -2.0272384e-12 0)
(0.1902479 -1.7468709e-12 0)
(0.1902479 -2.0342768e-12 0)
(0.1902479 -2.5236097e-12 0)
(0.1902479 -2.5017903e-12 0)
(0.1902479 -1.085774e-12 0)
(0.59346672 0.2146733 0)
(0.54593347 0.07599841 0)
(0.39702192 0.039312305 0)
(0.34953973 0.019720567 0)
(0.30792187 0.010726745 0)
(0.28963523 0.0061583862 0)
(0.27651264 0.0034761925 0)
(0.26994405 0.0020291105 0)
(0.26565503 0.001140993 0)
(0.26342423 0.00065140693 0)
(0.26206335 0.00035633229 0)
(0.26136077 0.00019487279 0)
(0.26095907 0.00010129417 0)
(0.26076048 5.1592112e-05 0)
(0.260656 2.4316983e-05 0)
(0.26060945 1.0644695e-05 0)
(0.26058866 3.7611241e-06 0)
(0.26058217 7.1204277e-07 0)
(0.26058122 -5.422633e-07 0)
(0.26058278 -8.8390465e-07 0)
(0.2605848 -8.6432636e-07 0)
(0.26058673 -7.0542163e-07 0)
(0.26058825 -5.2971001e-07 0)
(0.26058939 -3.7491408e-07 0)
(0.26059018 -2.5558355e-07 0)
(0.26059072 -1.6867869e-07 0)
(0.26059108 -1.0866427e-07 0)
(0.2605913 -6.8416737e-08 0)
(0.26059144 -4.225569e-08 0)
(0.26059153 -2.5597726e-08 0)
(0.26059159 -1.5229922e-08 0)
(0.26059162 -8.8906211e-09 0)
(0.26059163 -5.0898575e-09 0)
(0.26059165 -2.8519829e-09 0)
(0.26059165 -1.5588289e-09 0)
(0.26059165 -8.2729505e-10 0)
(0.26059166 -4.2235478e-10 0)
(0.26059166 -2.0570443e-10 0)
(0.26059166 -9.3449916e-11 0)
(0.26059166 -3.7438881e-11 0)
(0.26059166 -1.0523965e-11 0)
(0.26059166 1.6090825e-12 0)
(0.26059166 5.4099508e-12 0)
(0.26059166 5.9299439e-12 0)
(0.26059166 3.9949957e-12 0)
(0.26059166 2.3613252e-12 0)
(0.26059166 4.2205549e-13 0)
(0.26059166 -3.7384939e-13 0)
(0.26059166 -1.8390947e-12 0)
(0.26059166 -1.551584e-12 0)
(0.26059166 -2.3655067e-12 0)
(0.26059166 -2.2025056e-12 0)
(0.26059166 -3.1825927e-12 0)
(0.26059166 -3.0381644e-12 0)
(0.26059166 -3.3320855e-12 0)
(0.26059166 -2.5066078e-12 0)
(0.26059166 -1.9317872e-12 0)
(0.26059166 -5.1340652e-13 0)
(0.26059166 -3.2196097e-13 0)
(0.26059166 8.6217217e-13 0)
(0.26059166 7.7295774e-13 0)
(0.26059166 1.4893506e-12 0)
(0.26059166 1.2406169e-12 0)
(0.26059166 1.6031747e-12 0)
(0.26059166 1.276385e-12 0)
(0.26059166 1.584855e-12 0)
(0.26059166 1.6512333e-12 0)
(0.26059166 2.1039344e-12 0)
(0.26059166 2.3180683e-12 0)
(0.26059166 2.6648174e-12 0)
(0.26059166 2.6536241e-12 0)
(0.26059166 2.7932184e-12 0)
(0.26059166 2.7013547e-12 0)
(0.26059166 2.6629678e-12 0)
(0.26059166 2.6262845e-12 0)
(0.26059166 2.5576068e-12 0)
(0.26059166 2.6334084e-12 0)
(0.26059166 2.5117342e-12 0)
(0.26059166 2.6296697e-12 0)
(0.26059166 2.4032527e-12 0)
(0.26059166 2.5396892e-12 0)
(0.26059166 2.2727121e-12 0)
(0.26059166 2.4805063e-12 0)
(0.26059166 2.2008839e-12 0)
(0.26059166 2.3522932e-12 0)
(0.26059166 1.9726012e-12 0)
(0.26059166 2.1834262e-12 0)