/*--------------------------------*- C++ -*----------------------------------*\
| =========                 |                                                 |
| \\      /  F ield         | OpenFOAM: The Open Source CFD Toolbox           |
|  \\    /   O peration     | Version:  2206                                  |
|   \\  /    A nd           | Website:  www.openfoam.com                      |
|    \\/     M anipulation  |                                                 |
\*---------------------------------------------------------------------------*/
FoamFile
{
    version     2.0;
    format      ascii;
    arch        "LSB;label=32;scalar=64";
    class       surfaceScalarField;
    location    "25";
    object      phi;
}
// * * * * * * * * * * * * * * * * * * * * * * * * * * * * * * * * * * * * * //

dimensions      [0 3 -1 0 0 0 0];

oriented        oriented;

internalField   nonuniform List<scalar> 
29650
(
6.0867648e-05
0.00020579915
3.2718169e-05
2.8149491e-05
2.4599021e-05
8.119173e-06
2.0417849e-05
4.1812007e-06
1.8552178e-05
1.8656949e-06
1.73737e-05
1.1784927e-06
1.6781662e-05
5.9204184e-07
1.6412315e-05
3.6933876e-07
1.6220821e-05
1.9148054e-07
1.6106686e-05
1.1412127e-07
1.6048258e-05
5.8417866e-08
1.6015474e-05
3.2778454e-08
1.5999541e-05
1.5930805e-08
1.5991376e-05
8.1666681e-09
1.5987889e-05
3.4892645e-09
1.598644e-05
1.450963e-09
1.5986091e-05
3.5167107e-10
1.5986138e-05
-4.6540068e-11
1.598635e-05
-2.1032804e-10
1.5986569e-05
-2.1955471e-10
1.5986762e-05
-1.9223024e-10
1.5986908e-05
-1.4625676e-10
1.5987014e-05
-1.063894e-10
1.5987087e-05
-7.3058884e-11
1.5987136e-05
-4.8953187e-11
1.5987167e-05
-3.1693064e-11
1.5987187e-05
-2.0144496e-11
1.59872e-05
-1.2494196e-11
1.5987208e-05
-7.6260047e-12
1.5987212e-05
-4.5553316e-12
1.5987215e-05
-2.6712389e-12
1.5987216e-05
-1.5293789e-12
1.5987217e-05
-8.5677339e-13
1.5987218e-05
-4.6776408e-13
1.5987218e-05
-2.4834265e-13
1.5987218e-05
-1.2581285e-13
1.5987218e-05
-6.091759e-14
1.5987218e-05
-2.6510789e-14
1.5987218e-05
-1.1141781e-14
1.5987218e-05
-3.6737621e-15
1.5987218e-05
-8.4023576e-16
1.5987218e-05
1.4780414e-15
1.5987218e-05
9.9247435e-16
1.5987218e-05
4.2873364e-16
1.5987218e-05
-1.356147e-15
1.5987218e-05
-1.3908624e-15
1.5987218e-05
-3.8385234e-16
1.5987218e-05
1.9647161e-15
1.5987218e-05
2.2665914e-15
1.5987218e-05
4.3797803e-15
1.5987218e-05
3.8850945e-15
1.5987218e-05
4.6363028e-15
1.5987218e-05
3.4472257e-15
1.5987218e-05
3.3524951e-15
1.5987218e-05
2.6457853e-15
1.5987218e-05
2.7394348e-15
1.5987218e-05
2.4698569e-15
1.5987218e-05
3.3608992e-15
1.5987218e-05
2.2455081e-15
1.5987218e-05
3.3459064e-15
1.5987218e-05
2.3075668e-15
1.5987218e-05
3.0051339e-15
1.5987218e-05
2.1347048e-15
1.5987218e-05
2.2897283e-15
1.5987218e-05
1.5325537e-15
1.5987218e-05
1.6987449e-15
1.5987218e-05
1.7067101e-15
1.5987218e-05
2.261516e-15
1.5987218e-05
2.4632067e-15
1.5987218e-05
2.9813286e-15
1.5987218e-05
2.6046726e-15
1.5987218e-05
3.0538817e-15
1.5987218e-05
2.5862807e-15
1.5987218e-05
2.9032851e-15
1.5987218e-05
2.6214889e-15
1.5987218e-05
2.9231568e-15
1.5987218e-05
2.632746e-15
1.5987218e-05
2.7572495e-15
1.5987218e-05
2.67843e-15
1.5987218e-05
3.1800642e-15
1.5987218e-05
3.3851318e-15
1.5987218e-05
3.5617454e-15
1.5987218e-05
2.8640135e-15
1.5987218e-05
1.7088537e-15
1.5987218e-05
1.7131287e-16
1.5987218e-05
-1.045711e-15
1.5987218e-05
-1.7780935e-15
1.5987218e-05
-2.1822195e-15
1.5987218e-05
-2.2542223e-15
1.5987218e-05
-2.3755029e-15
1.5987218e-05
-2.386234e-15
1.5987218e-05
-2.5396179e-15
1.5987218e-05
-2.5034665e-15
1.5987218e-05
-2.6212753e-15
1.5987218e-05
-2.6195429e-15
1.5987218e-05
-2.8407678e-15
1.5987218e-05
-2.7151066e-15
1.5987218e-05
-2.5850916e-15
1.5987218e-05
-2.2397078e-15
1.5987218e-05
-2.3953552e-15
1.5987218e-05
-2.619724e-15
1.5987218e-05
-3.1144137e-15
1.5987218e-05
-2.938697e-15
1.5987218e-05
-2.3689742e-15
1.5987218e-05
-6.5741572e-16
1.5987218e-05
8.1574284e-16
1.5987218e-05
1.9833389e-15
1.5987218e-05
2.0274439e-15
1.5987218e-05
1.4549415e-15
1.5987218e-05
1.4741947e-16
1.5987218e-05
-9.4524637e-16
1.5987218e-05
-1.9153975e-15
1.5987218e-05
-2.3855888e-15
1.5987218e-05
-2.7142513e-15
1.5987218e-05
-2.4526428e-15
1.5987218e-05
-2.5998604e-15
1.5987218e-05
-2.5944924e-15
1.5987218e-05
-3.1759413e-15
1.5987218e-05
-3.3575504e-15
1.5987218e-05
-3.5027353e-15
1.5987218e-05
-2.6568754e-15
1.5987218e-05
-1.4904101e-15
1.5987218e-05
5.667978e-17
1.5987218e-05
1.1540464e-15
1.5987218e-05
1.9205482e-15
1.5987218e-05
2.2299157e-15
1.5987218e-05
2.4078124e-15
1.5987218e-05
2.406026e-15
1.5987218e-05
2.4983839e-15
1.5987218e-05
2.4923979e-15
1.5987218e-05
2.5508935e-15
1.5987218e-05
2.5171048e-15
1.5987218e-05
2.5346911e-15
1.5987218e-05
2.4945948e-15
1.5987218e-05
2.499179e-15
1.5987218e-05
2.4728982e-15
1.5987218e-05
2.4708554e-15
1.5987218e-05
2.4714035e-15
1.5987218e-05
2.4765269e-15
1.5987218e-05
2.5033827e-15
1.5987218e-05
2.5048456e-15
1.5987218e-05
2.5572703e-15
1.5987218e-05
2.5692812e-15
1.5987218e-05
2.6379943e-15
1.5987218e-05
2.6016308e-15
1.5987218e-05
2.6341065e-15
1.5987218e-05
2.6142973e-15
1.5987218e-05
2.7560986e-15
1.5987218e-05
2.7501236e-15
1.5987218e-05
2.7318916e-15
1.5987218e-05
2.4574408e-15
1.5987218e-05
2.4870181e-15
1.5987218e-05
2.7317171e-15
1.5987218e-05
3.2624068e-15
1.5987218e-05
3.3296311e-15
1.5987218e-05
2.9628443e-15
1.5987218e-05
1.5710757e-15
1.5987218e-05
7.2496297e-17
1.5987218e-05
-1.3628407e-15
1.5987218e-05
-2.1711146e-15
1.5987218e-05
-2.6254067e-15
1.5987218e-05
-2.6335999e-15
1.5987218e-05
-2.6327419e-15
1.5987218e-05
-2.5132593e-15
1.5987218e-05
-2.6567003e-15
1.5987218e-05
-2.6119155e-15
1.5987218e-05
-2.7445052e-15
1.5987218e-05
-2.6546761e-15
1.5987218e-05
-2.7499971e-15
1.5987218e-05
-2.6449878e-15
1.5987218e-05
-2.7300777e-15
1.5987218e-05
-2.6343595e-15
1.5987218e-05
-2.7168643e-15
1.5987218e-05
-2.6283138e-15
1.5987218e-05
-2.7125476e-15
1.5987218e-05
-2.631116e-15
1.5987218e-05
-2.7139666e-15
1.5987218e-05
-2.6161641e-15
1.5987218e-05
-2.6797039e-15
1.5987218e-05
-2.5927737e-15
1.5987218e-05
-2.6457678e-15
1.5987218e-05
-2.5717662e-15
1.5987218e-05
-2.5736833e-15
1.5987218e-05
-2.5276473e-15
1.5987218e-05
-2.5589227e-15
1.5987218e-05
-2.5723702e-15
1.5987218e-05
-2.5851458e-15
1.5987218e-05
-2.5734238e-15
1.5987218e-05
-2.5401753e-15
1.5987218e-05
-2.5355159e-15
1.5987218e-05
-2.5122207e-15
1.5987218e-05
-2.5511801e-15
1.5987218e-05
-2.5873443e-15
1.5987218e-05
-2.7031908e-15
1.5987218e-05
-2.6527115e-15
1.5987218e-05
-2.5533537e-15
1.5987218e-05
-2.336217e-15
1.5987218e-05
-2.5176118e-15
1.5987218e-05
-2.8495707e-15
1.5987218e-05
-3.3669922e-15
1.5987218e-05
-3.3512134e-15
1.5987218e-05
-2.7370301e-15
1.5987218e-05
-1.2941562e-15
1.5987218e-05
1.4579492e-16
1.5987218e-05
1.36241e-15
1.5987218e-05
1.8307079e-15
1.5987218e-05
2.1279851e-15
1.5987218e-05
2.2953135e-15
1.5987218e-05
2.8255767e-15
1.5987218e-05
3.094503e-15
1.5987218e-05
3.1724478e-15
1.5987218e-05
2.370604e-15
1.5987218e-05
1.0243735e-15
1.5987218e-05
-4.8744152e-16
1.5987218e-05
-1.7331705e-15
1.5987218e-05
-2.3774473e-15
1.5987218e-05
-2.5552464e-15
1.5987218e-05
-2.4612326e-15
1.5987218e-05
-2.6125746e-15
1.5987218e-05
-3.0125586e-15
1.5987218e-05
-3.5166398e-15
1.5987218e-05
-3.5982748e-15
1.5987218e-05
-2.9377017e-15
1.5987218e-05
-1.5559261e-15
1.5987218e-05
3.5553782e-17
1.5987218e-05
1.3816601e-15
1.5987218e-05
2.2218022e-15
1.5987218e-05
2.659612e-15
1.5987218e-05
2.5805654e-15
1.5987218e-05
2.4874107e-15
1.5987218e-05
2.516009e-15
1.5987218e-05
2.9953627e-15
1.5987218e-05
3.3960592e-15
1.5987218e-05
3.6074881e-15
1.5987218e-05
2.9051935e-15
1.5987218e-05
1.7791619e-15
1.5987218e-05
3.5550491e-16
1.5987218e-05
-9.7205089e-16
1.5987218e-05
-2.0928256e-15
1.5987218e-05
-2.9430469e-15
1.5987218e-05
-3.0809719e-15
1.5987218e-05
-2.6344419e-15
1.5987218e-05
-1.3318766e-15
1.5987218e-05
1.761607e-16
1.5987218e-05
1.4616114e-15
1.5987218e-05
2.1903583e-15
1.5987218e-05
2.4116403e-15
1.5987218e-05
2.4803661e-15
1.5987218e-05
2.8017953e-15
1.5987218e-05
3.216075e-15
1.5987218e-05
3.4726666e-15
1.5987218e-05
3.1574182e-15
1.5987218e-05
2.0835156e-15
1.5987218e-05
5.1467621e-16
1.5987218e-05
-8.8615362e-16
1.5987218e-05
-1.8895587e-15
1.5987218e-05
-2.4280454e-15
1.5987218e-05
-2.6069238e-15
1.5987218e-05
-2.657459e-15
1.5987218e-05
-2.6941972e-15
1.5987218e-05
-2.7996252e-15
1.5987218e-05
-2.7990445e-15
1.5987218e-05
-2.6798725e-15
1.5987218e-05
-2.5098484e-15
1.5987218e-05
-2.6254993e-15
1.5987218e-05
-2.9725781e-15
1.5987218e-05
-3.4244543e-15
1.5987218e-05
-3.4081963e-15
1.5987218e-05
-2.6702585e-15
1.5987218e-05
-1.3366416e-15
1.5987218e-05
5.9381911e-17
1.5987218e-05
1.0916041e-15
1.5987218e-05
1.9734536e-15
1.5987218e-05
2.7063548e-15
1.5987218e-05
3.2511201e-15
1.5987218e-05
3.3973377e-15
1.5987218e-05
2.69556e-15
1.5987218e-05
1.4692213e-15
1.5987218e-05
-6.3910787e-17
1.5987218e-05
-1.2896092e-15
1.5987218e-05
-2.0664128e-15
1.5987218e-05
-2.4758422e-15
1.5987218e-05
-2.5530745e-15
1.5987218e-05
-2.5624118e-15
1.5987218e-05
-2.5431759e-15
1.5987218e-05
-2.5907836e-15
1.5987218e-05
-2.6335492e-15
1.5987218e-05
-2.7325005e-15
1.5987218e-05
-2.7274518e-15
1.5987218e-05
-2.7516587e-15
1.5987218e-05
-2.6433655e-15
1.5987218e-05
-2.6619369e-15
1.5987218e-05
-2.7267251e-15
1.5987218e-05
-2.8526021e-15
1.5987218e-05
-2.5824547e-15
1.5987218e-05
-2.2541032e-15
1.5987218e-05
-2.6076399e-15
1.5987218e-05
-3.6315451e-15
1.5987218e-05
-3.4578201e-15
-1.4029095e-15
0.00014027132
0.00033219463
9.2549243e-05
7.5871578e-05
7.0338072e-05
3.0330369e-05
5.9620314e-05
1.4898989e-05
5.4019642e-05
7.4663915e-06
5.0795344e-05
4.4028075e-06
4.901105e-05
2.3763385e-06
4.7964745e-05
1.4156355e-06
4.7384384e-05
7.7182739e-07
4.7052233e-05
4.4625813e-07
4.6872682e-05
2.3795924e-07
4.677453e-05
1.3092462e-07
4.6724186e-05
6.6273079e-08
4.6698685e-05
3.3669321e-08
4.6686924e-05
1.5251876e-08
4.6681893e-05
6.4851529e-09
4.6680252e-05
1.9943165e-09
4.6680058e-05
1.4863631e-10
4.6680445e-05
-5.9627475e-10
4.6680961e-05
-7.3574362e-10
4.6681443e-05
-6.7357204e-10
4.6681826e-05
-5.2968162e-10
4.668211e-05
-3.906152e-10
4.6682309e-05
-2.7224102e-10
4.6682444e-05
-1.8382598e-10
4.6682532e-05
-1.2015671e-10
4.6682589e-05
-7.6855049e-11
4.6682624e-05
-4.8032851e-11
4.6682646e-05
-2.9488207e-11
4.6682659e-05
-1.7742081e-11
4.6682667e-05
-1.0480685e-11
4.6682672e-05
-6.0604415e-12
4.6682674e-05
-3.4335729e-12
4.6682676e-05
-1.8998318e-12
4.6682676e-05
-1.0241736e-12
4.6682677e-05
-5.3175906e-13
4.6682677e-05
-2.6439986e-13
4.6682677e-05
-1.2219901e-13
4.6682677e-05
-5.2854262e-14
4.6682677e-05
-1.9131374e-14
4.6682677e-05
-4.4004894e-15
4.6682677e-05
3.3437554e-15
4.6682677e-05
4.2508792e-15
4.6682677e-05
2.950619e-15
4.6682677e-05
-6.3873927e-16
4.6682677e-05
-1.4507921e-15
4.6682677e-05
1.9596062e-16
4.6682677e-05
3.8060116e-15
4.6682677e-05
5.2160623e-15
4.6682677e-05
8.4706014e-15
4.6682677e-05
8.1509688e-15
4.6682677e-05
9.090378e-15
4.6682677e-05
7.309721e-15
4.6682677e-05
6.8653921e-15
4.6682677e-05
5.7552121e-15
4.6682677e-05
5.7406812e-15
4.6682677e-05
5.305563e-15
4.6682677e-05
6.3029845e-15
4.6682677e-05
4.8344277e-15
4.6682677e-05
6.1515048e-15
4.6682677e-05
4.8252217e-15
4.6682677e-05
5.6829621e-15
4.6682677e-05
4.4687454e-15
4.6682677e-05
4.4170435e-15
4.6682677e-05
3.2577242e-15
4.6682677e-05
3.4332162e-15
4.6682677e-05
3.6336758e-15
4.6682677e-05
4.6445522e-15
4.6682677e-05
5.0780285e-15
4.6682677e-05
5.7959634e-15
4.6682677e-05
5.3592322e-15
4.6682677e-05
5.8886237e-15
4.6682677e-05
5.246789e-15
4.6682677e-05
5.576215e-15
4.6682677e-05
5.2626725e-15
4.6682677e-05
5.6726305e-15
4.6682677e-05
5.2945593e-15
4.6682677e-05
5.3679264e-15
4.6682677e-05
5.3312411e-15
4.6682677e-05
6.1002047e-15
4.6682677e-05
6.7287357e-15
4.6682677e-05
7.0016456e-15
4.6682677e-05
5.7481761e-15
4.6682677e-05
3.450058e-15
4.6682677e-05
3.1718083e-16
4.6682677e-05
-2.1249095e-15
4.6682677e-05
-3.6362525e-15
4.6682677e-05
-4.4240238e-15
4.6682677e-05
-4.5522204e-15
4.6682677e-05
-4.771038e-15
4.6682677e-05
-4.7924751e-15
4.6682677e-05
-5.0918893e-15
4.6682677e-05
-5.0354347e-15
4.6682677e-05
-5.2427964e-15
4.6682677e-05
-5.2569194e-15
4.6682677e-05
-5.6671463e-15
4.6682677e-05
-5.4701677e-15
4.6682677e-05
-5.2169279e-15
4.6682677e-05
-4.5347662e-15
4.6682677e-05
-4.7370966e-15
4.6682677e-05
-5.2623551e-15
4.6682677e-05
-6.1844309e-15
4.6682677e-05
-5.9458168e-15
4.6682677e-05
-4.8404531e-15
4.6682677e-05
-1.3905618e-15
4.6682677e-05
1.5455842e-15
4.6682677e-05
4.0073398e-15
4.6682677e-05
4.1087654e-15
4.6682677e-05
2.8775586e-15
4.6682677e-05
3.7995456e-16
4.6682677e-05
-1.9081292e-15
4.6682677e-05
-3.7124095e-15
4.6682677e-05
-4.6867052e-15
4.6682677e-05
-5.2362441e-15
4.6682677e-05
-4.8653647e-15
4.6682677e-05
-5.0761906e-15
4.6682677e-05
-5.1372101e-15
4.6682677e-05
-6.1731528e-15
4.6682677e-05
-6.6983819e-15
4.6682677e-05
-6.9336117e-15
4.6682677e-05
-5.3338719e-15
4.6682677e-05
-3.0534936e-15
4.6682677e-05
1.1418584e-16
4.6682677e-05
2.2936574e-15
4.6682677e-05
3.8777078e-15
4.6682677e-05
4.477317e-15
4.6682677e-05
4.8213672e-15
4.6682677e-05
4.838901e-15
4.6682677e-05
5.002658e-15
4.6682677e-05
5.0125526e-15
4.6682677e-05
5.1165898e-15
4.6682677e-05
5.0677479e-15
4.6682677e-05
5.0928551e-15
4.6682677e-05
5.0256448e-15
4.6682677e-05
5.0285532e-15
4.6682677e-05
4.9824455e-15
4.6682677e-05
4.9775141e-15
4.6682677e-05
4.9757587e-15
4.6682677e-05
4.988488e-15
4.6682677e-05
5.0390492e-15
4.6682677e-05
5.0474043e-15
4.6682677e-05
5.1414109e-15
4.6682677e-05
5.1759884e-15
4.6682677e-05
5.3044783e-15
4.6682677e-05
5.2466633e-15
4.6682677e-05
5.2963726e-15
4.6682677e-05
5.2708344e-15
4.6682677e-05
5.5232082e-15
4.6682677e-05
5.5633536e-15
4.6682677e-05
5.5003077e-15
4.6682677e-05
4.9735229e-15
4.6682677e-05
4.9635275e-15
4.6682677e-05
5.4937904e-15
4.6682677e-05
6.4957459e-15
4.6682677e-05
6.7509182e-15
4.6682677e-05
6.0258538e-15
4.6682677e-05
3.2976267e-15
4.6682677e-05
3.2107919e-16
4.6682677e-05
-2.6615148e-15
4.6682677e-05
-4.2950537e-15
4.6682677e-05
-5.1506009e-15
4.6682677e-05
-5.2175332e-15
4.6682677e-05
-5.2097737e-15
4.6682677e-05
-5.0017776e-15
4.6682677e-05
-5.2710636e-15
4.6682677e-05
-5.2152523e-15
4.6682677e-05
-5.4344615e-15
4.6682677e-05
-5.3009629e-15
4.6682677e-05
-5.4509453e-15
4.6682677e-05
-5.2853386e-15
4.6682677e-05
-5.4181617e-15
4.6682677e-05
-5.269554e-15
4.6682677e-05
-5.4011154e-15
4.6682677e-05
-5.2653376e-15
4.6682677e-05
-5.397743e-15
4.6682677e-05
-5.2728542e-15
4.6682677e-05
-5.4048413e-15
4.6682677e-05
-5.2500649e-15
4.6682677e-05
-5.3335754e-15
4.6682677e-05
-5.2142512e-15
4.6682677e-05
-5.2713595e-15
4.6682677e-05
-5.1917012e-15
4.6682677e-05
-5.1513553e-15
4.6682677e-05
-5.0964688e-15
4.6682677e-05
-5.1447712e-15
4.6682677e-05
-5.1786635e-15
4.6682677e-05
-5.2145895e-15
4.6682677e-05
-5.1814666e-15
4.6682677e-05
-5.1351054e-15
4.6682677e-05
-5.1198429e-15
4.6682677e-05
-5.0962506e-15
4.6682677e-05
-5.177156e-15
4.6682677e-05
-5.2689277e-15
4.6682677e-05
-5.4962009e-15
4.6682677e-05
-5.4428751e-15
4.6682677e-05
-5.2273907e-15
4.6682677e-05
-4.7911158e-15
4.6682677e-05
-5.0746852e-15
4.6682677e-05
-5.7464038e-15
4.6682677e-05
-6.6781744e-15
4.6682677e-05
-6.6939034e-15
4.6682677e-05
-5.4661687e-15
4.6682677e-05
-2.6134291e-15
4.6682677e-05
2.9620371e-16
4.6682677e-05
2.8118991e-15
4.6682677e-05
3.8013205e-15
4.6682677e-05
4.2952635e-15
4.6682677e-05
4.6293696e-15
4.6682677e-05
5.6165903e-15
4.6682677e-05
6.273306e-15
4.6682677e-05
6.3959918e-15
4.6682677e-05
4.8829864e-15
4.6682677e-05
2.1899568e-15
4.6682677e-05
-8.4578519e-16
4.6682677e-05
-3.3822062e-15
4.6682677e-05
-4.7240016e-15
4.6682677e-05
-5.0361729e-15
4.6682677e-05
-4.8332408e-15
4.6682677e-05
-5.0495104e-15
4.6682677e-05
-5.8726551e-15
4.6682677e-05
-6.8652981e-15
4.6682677e-05
-7.0936272e-15
4.6682677e-05
-5.8374237e-15
4.6682677e-05
-3.1584642e-15
4.6682677e-05
7.0337872e-17
4.6682677e-05
2.7195739e-15
4.6682677e-05
4.4585414e-15
4.6682677e-05
5.2666206e-15
4.6682677e-05
5.137732e-15
4.6682677e-05
4.9127994e-15
4.6682677e-05
4.929941e-15
4.6682677e-05
5.8094277e-15
4.6682677e-05
6.7390794e-15
4.6682677e-05
7.1211841e-15
4.6682677e-05
5.7944177e-15
4.6682677e-05
3.5828604e-15
4.6682677e-05
6.7452177e-16
4.6682677e-05
-1.8872085e-15
4.6682677e-05
-4.2356535e-15
4.6682677e-05
-5.8522495e-15
4.6682677e-05
-6.2405892e-15
4.6682677e-05
-5.3630872e-15
4.6682677e-05
-2.7990057e-15
4.6682677e-05
1.5795887e-16
4.6682677e-05
2.8742072e-15
4.6682677e-05
4.3153944e-15
4.6682677e-05
4.7365787e-15
4.6682677e-05
4.8463057e-15
4.6682677e-05
5.4289147e-15
4.6682677e-05
6.2823778e-15
4.6682677e-05
6.8733889e-15
4.6682677e-05
6.3207703e-15
4.6682677e-05
4.2085041e-15
4.6682677e-05
1.1716279e-15
4.6682677e-05
-1.7454754e-15
4.6682677e-05
-3.7443211e-15
4.6682677e-05
-4.8213442e-15
4.6682677e-05
-5.1644928e-15
4.6682677e-05
-5.2485929e-15
4.6682677e-05
-5.3226511e-15
4.6682677e-05
-5.5307037e-15
4.6682677e-05
-5.5781213e-15
4.6682677e-05
-5.3387674e-15
4.6682677e-05
-4.9990383e-15
4.6682677e-05
-5.1278556e-15
4.6682677e-05
-5.8663828e-15
4.6682677e-05
-6.7487703e-15
4.6682677e-05
-6.8004451e-15
4.6682677e-05
-5.3468605e-15
4.6682677e-05
-2.7138096e-15
4.6682677e-05
1.1519548e-16
4.6682677e-05
2.1967395e-15
4.6682677e-05
3.9159232e-15
4.6682677e-05
5.3154282e-15
4.6682677e-05
6.4513047e-15
4.6682677e-05
6.7356108e-15
4.6682677e-05
5.4363086e-15
4.6682677e-05
3.0210243e-15
4.6682677e-05
-1.2743225e-16
4.6682677e-05
-2.533966e-15
4.6682677e-05
-4.183916e-15
4.6682677e-05
-4.9376319e-15
4.6682677e-05
-5.1134742e-15
4.6682677e-05
-5.1083193e-15
4.6682677e-05
-5.0784333e-15
4.6682677e-05
-5.186504e-15
4.6682677e-05
-5.2874159e-15
4.6682677e-05
-5.4433488e-15
4.6682677e-05
-5.4737616e-15
4.6682677e-05
-5.4836565e-15
4.6682677e-05
-5.2982485e-15
4.6682677e-05
-5.2771835e-15
4.6682677e-05
-5.4304516e-15
4.6682677e-05
-5.6811421e-15
4.6682677e-05
-5.2073987e-15
4.6682677e-05
-4.4865731e-15
4.6682677e-05
-5.0624965e-15
4.6682677e-05
-7.0520953e-15
4.6682677e-05
-7.0609597e-15
-3.1688727e-15
0.00019469214
0.00040416929
0.00014360962
0.00012695411
0.00011230147
6.1638508e-05
9.6619294e-05
3.0581162e-05
8.776222e-05
1.6323461e-05
8.2755405e-05
9.4096228e-06
7.9871701e-05
5.2600488e-06
7.8206034e-05
3.0813098e-06
7.7256668e-05
1.7211976e-06
7.6718195e-05
9.8473397e-07
7.6420462e-05
5.3569118e-07
7.6258218e-05
2.9316748e-07
7.6172993e-05
1.5149616e-07
7.61296e-05
7.706048e-08
7.6108851e-05
3.5999264e-08
7.6099695e-05
1.5639856e-08
7.6096324e-05
5.3647581e-09
7.6095587e-05
8.8532213e-10
7.6095937e-05
-9.4540562e-10
7.6096611e-05
-1.4101915e-09
7.609729e-05
-1.3527284e-09
7.6097854e-05
-1.0930119e-09
7.609828e-05
-8.1665498e-10
7.6098584e-05
-5.7568993e-10
7.6098791e-05
-3.9145079e-10
7.6098929e-05
-2.5771079e-10
7.6099018e-05
-1.6571059e-10
7.6099074e-05
-1.041459e-10
7.6099108e-05
-6.4231517e-11
7.609913e-05
-3.885011e-11
7.6099142e-05
-2.3074779e-11
7.609915e-05
-1.343569e-11
7.6099154e-05
-7.6683682e-12
7.6099156e-05
-4.2796734e-12
7.6099157e-05
-2.3294195e-12
7.6099158e-05
-1.2269096e-12
7.6099158e-05
-6.2180522e-13
7.6099159e-05
-2.9623743e-13
7.6099159e-05
-1.3169429e-13
7.6099159e-05
-5.0073123e-14
7.6099159e-05
-1.3219276e-14
7.6099159e-05
4.4911263e-15
7.6099159e-05
7.8911806e-15
7.6099159e-05
7.4281392e-15
7.6099159e-05
3.2370736e-15
7.6099159e-05
2.1777605e-15
7.6099159e-05
3.1200832e-15
7.6099159e-05
6.3055483e-15
7.6099159e-05
5.6326828e-15
7.6099159e-05
9.0383611e-15
7.6099159e-05
7.6960863e-15
7.6099159e-05
9.2514849e-15
7.6099159e-05
6.9591026e-15
7.6099159e-05
6.8270721e-15
7.6099159e-05
5.4494349e-15
7.6099159e-05
5.7346806e-15
7.6099159e-05
5.4443557e-15
7.6099159e-05
7.3623929e-15
7.6099159e-05
5.0001096e-15
7.6099159e-05
7.104041e-15
7.6099159e-05
4.858297e-15
7.6099159e-05
6.3025018e-15
7.6099159e-05
4.6803294e-15
7.6099159e-05
5.0534187e-15
7.6099159e-05
3.5611408e-15
7.6099159e-05
3.8111952e-15
7.6099159e-05
3.7801363e-15
7.6099159e-05
4.8407069e-15
7.6099159e-05
5.2062336e-15
7.6099159e-05
6.2190811e-15
7.6099159e-05
5.4694069e-15
7.6099159e-05
6.3475083e-15
7.6099159e-05
5.3928509e-15
7.6099159e-05
5.9734265e-15
7.6099159e-05
5.3941487e-15
7.6099159e-05
5.9395347e-15
7.6099159e-05
5.3641903e-15
7.6099159e-05
5.6678058e-15
7.6099159e-05
5.6442131e-15
7.6099159e-05
6.646559e-15
7.6099159e-05
7.0118571e-15
7.6099159e-05
7.132404e-15
7.6099159e-05
5.4222404e-15
7.6099159e-05
3.0011466e-15
7.6099159e-05
-1.0906838e-16
7.6099159e-05
-2.4759815e-15
7.6099159e-05
-3.8952179e-15
7.6099159e-05
-4.6475047e-15
7.6099159e-05
-4.7138877e-15
7.6099159e-05
-4.8949633e-15
7.6099159e-05
-4.8633998e-15
7.6099159e-05
-5.1667101e-15
7.6099159e-05
-5.0911708e-15
7.6099159e-05
-5.3850853e-15
7.6099159e-05
-5.4181769e-15
7.6099159e-05
-5.872745e-15
7.6099159e-05
-5.5612083e-15
7.6099159e-05
-5.2935989e-15
7.6099159e-05
-4.6309529e-15
7.6099159e-05
-4.974993e-15
7.6099159e-05
-5.4044031e-15
7.6099159e-05
-6.2533002e-15
7.6099159e-05
-5.5700483e-15
7.6099159e-05
-4.2639662e-15
7.6099159e-05
-7.2681333e-16
7.6099159e-05
2.0982903e-15
7.6099159e-05
4.3952587e-15
7.6099159e-05
4.2441867e-15
7.6099159e-05
2.85771e-15
7.6099159e-05
1.0555183e-16
7.6099159e-05
-2.2340815e-15
7.6099159e-05
-4.1896195e-15
7.6099159e-05
-5.1070615e-15
7.6099159e-05
-5.6866515e-15
7.6099159e-05
-5.1070552e-15
7.6099159e-05
-5.4344352e-15
7.6099159e-05
-5.466568e-15
7.6099159e-05
-6.6533803e-15
7.6099159e-05
-6.9268853e-15
7.6099159e-05
-6.9720487e-15
7.6099159e-05
-4.9668925e-15
7.6099159e-05
-2.5319767e-15
7.6099159e-05
6.6004064e-16
7.6099159e-05
2.8091722e-15
7.6099159e-05
4.3268294e-15
7.6099159e-05
4.8586511e-15
7.6099159e-05
5.1350948e-15
7.6099159e-05
5.0556566e-15
7.6099159e-05
5.1722255e-15
7.6099159e-05
5.119113e-15
7.6099159e-05
5.2175765e-15
7.6099159e-05
5.140209e-15
7.6099159e-05
5.1691228e-15
7.6099159e-05
5.0844216e-15
7.6099159e-05
5.082785e-15
7.6099159e-05
5.0260924e-15
7.6099159e-05
5.0133614e-15
7.6099159e-05
5.0151224e-15
7.6099159e-05
5.0221677e-15
7.6099159e-05
5.0935222e-15
7.6099159e-05
5.1003817e-15
7.6099159e-05
5.2368708e-15
7.6099159e-05
5.2711914e-15
7.6099159e-05
5.43815e-15
7.6099159e-05
5.3657364e-15
7.6099159e-05
5.4708753e-15
7.6099159e-05
5.4514842e-15
7.6099159e-05
5.7640581e-15
7.6099159e-05
5.726917e-15
7.6099159e-05
5.6808589e-15
7.6099159e-05
5.1431641e-15
7.6099159e-05
5.2945946e-15
7.6099159e-05
5.8484851e-15
7.6099159e-05
6.8418134e-15
7.6099159e-05
6.6984908e-15
7.6099159e-05
5.6722185e-15
7.6099159e-05
2.6737321e-15
7.6099159e-05
-3.2559426e-16
7.6099159e-05
-3.2332333e-15
7.6099159e-05
-4.8113171e-15
7.6099159e-05
-5.6800714e-15
7.6099159e-05
-5.6509871e-15
7.6099159e-05
-5.5735928e-15
7.6099159e-05
-5.2316893e-15
7.6099159e-05
-5.4686088e-15
7.6099159e-05
-5.3551556e-15
7.6099159e-05
-5.6206436e-15
7.6099159e-05
-5.4510813e-15
7.6099159e-05
-5.6522293e-15
7.6099159e-05
-5.4528511e-15
7.6099159e-05
-5.6319926e-15
7.6099159e-05
-5.451925e-15
7.6099159e-05
-5.6265023e-15
7.6099159e-05
-5.462069e-15
7.6099159e-05
-5.6388757e-15
7.6099159e-05
-5.4815509e-15
7.6099159e-05
-5.6467043e-15
7.6099159e-05
-5.4455351e-15
7.6099159e-05
-5.5595191e-15
7.6099159e-05
-5.3884596e-15
7.6099159e-05
-5.4732994e-15
7.6099159e-05
-5.3405919e-15
7.6099159e-05
-5.3188706e-15
7.6099159e-05
-5.2450088e-15
7.6099159e-05
-5.301569e-15
7.6099159e-05
-5.3336821e-15
7.6099159e-05
-5.348946e-15
7.6099159e-05
-5.3300993e-15
7.6099159e-05
-5.2757972e-15
7.6099159e-05
-5.2904362e-15
7.6099159e-05
-5.2605294e-15
7.6099159e-05
-5.3741958e-15
7.6099159e-05
-5.4675044e-15
7.6099159e-05
-5.7056126e-15
7.6099159e-05
-5.5626587e-15
7.6099159e-05
-5.3417061e-15
7.6099159e-05
-4.9135248e-15
7.6099159e-05
-5.3183271e-15
7.6099159e-05
-5.9577963e-15
7.6099159e-05
-6.7743334e-15
7.6099159e-05
-6.4202088e-15
7.6099159e-05
-4.9388461e-15
7.6099159e-05
-1.9293601e-15
7.6099159e-05
9.3655871e-16
7.6099159e-05
3.3445776e-15
7.6099159e-05
4.2263702e-15
7.6099159e-05
4.7975586e-15
7.6099159e-05
5.1200757e-15
7.6099159e-05
6.1087799e-15
7.6099159e-05
6.4638927e-15
7.6099159e-05
6.2690073e-15
7.6099159e-05
4.3910471e-15
7.6099159e-05
1.5750225e-15
7.6099159e-05
-1.4599995e-15
7.6099159e-05
-3.9333976e-15
7.6099159e-05
-5.1287299e-15
7.6099159e-05
-5.3836632e-15
7.6099159e-05
-5.1500184e-15
7.6099159e-05
-5.4481757e-15
7.6099159e-05
-6.2490205e-15
7.6099159e-05
-7.1291861e-15
7.6099159e-05
-6.998622e-15
7.6099159e-05
-5.4260434e-15
7.6099159e-05
-2.5872352e-15
7.6099159e-05
5.8882276e-16
7.6099159e-05
3.1937837e-15
7.6099159e-05
4.8146057e-15
7.6099159e-05
5.5781881e-15
7.6099159e-05
5.3279688e-15
7.6099159e-05
5.1156008e-15
7.6099159e-05
5.2022444e-15
7.6099159e-05
6.1821163e-15
7.6099159e-05
6.9150066e-15
7.6099159e-05
7.062575e-15
7.6099159e-05
5.3763382e-15
7.6099159e-05
3.0434082e-15
7.6099159e-05
1.3148959e-16
7.6099159e-05
-2.5071026e-15
7.6099159e-05
-4.7642062e-15
7.6099159e-05
-6.2869769e-15
7.6099159e-05
-6.2390631e-15
7.6099159e-05
-5.0181508e-15
7.6099159e-05
-2.2121163e-15
7.6099159e-05
7.9412283e-16
7.6099159e-05
3.3602405e-15
7.6099159e-05
4.7278786e-15
7.6099159e-05
5.1206547e-15
7.6099159e-05
5.2671691e-15
7.6099159e-05
5.9084675e-15
7.6099159e-05
6.6585776e-15
7.6099159e-05
6.9648907e-15
7.6099159e-05
6.0260977e-15
7.6099159e-05
3.6798751e-15
7.6099159e-05
5.3462239e-16
7.6099159e-05
-2.260627e-15
7.6099159e-05
-4.2008951e-15
7.6099159e-05
-5.225655e-15
7.6099159e-05
-5.5125868e-15
7.6099159e-05
-5.5622485e-15
7.6099159e-05
-5.5863693e-15
7.6099159e-05
-5.7712384e-15
7.6099159e-05
-5.7372504e-15
7.6099159e-05
-5.4861668e-15
7.6099159e-05
-5.1842664e-15
7.6099159e-05
-5.484358e-15
7.6099159e-05
-6.2230622e-15
7.6099159e-05
-7.0139375e-15
7.6099159e-05
-6.6733749e-15
7.6099159e-05
-4.9315891e-15
7.6099159e-05
-2.1743037e-15
7.6099159e-05
6.212562e-16
7.6099159e-05
2.6826557e-15
7.6099159e-05
4.4873697e-15
7.6099159e-05
5.9048381e-15
7.6099159e-05
6.8168617e-15
7.6099159e-05
6.74804e-15
7.6099159e-05
5.0111392e-15
7.6099159e-05
2.4349641e-15
7.6099159e-05
-6.8581669e-16
7.6099159e-05
-3.0530773e-15
7.6099159e-05
-4.5785661e-15
7.6099159e-05
-5.3108795e-15
7.6099159e-05
-5.3833521e-15
7.6099159e-05
-5.3357625e-15
7.6099159e-05
-5.2533176e-15
7.6099159e-05
-5.3482725e-15
7.6099159e-05
-5.4327171e-15
7.6099159e-05
-5.6315573e-15
7.6099159e-05
-5.6225959e-15
7.6099159e-05
-5.6613971e-15
7.6099159e-05
-5.4366439e-15
7.6099159e-05
-5.4796162e-15
7.6099159e-05
-5.6217758e-15
7.6099159e-05
-5.8457769e-15
7.6099159e-05
-5.2313098e-15
7.6099159e-05
-4.661401e-15
7.6099159e-05
-5.5263903e-15
7.6099159e-05
-7.4983188e-15
7.6099159e-05
-6.7218114e-15
-2.5796306e-15
0.00023312986
0.00043770623
0.00018548527
0.0001745987
0.00015018421
9.6939549e-05
0.0001310242
4.9741152e-05
0.00011965162
2.7696023e-05
0.0001131446
1.5916642e-05
0.00010931814
9.0865188e-06
0.00010710183
5.2976355e-06
0.0001058215
3.0015488e-06
0.00010509347
1.7127711e-06
0.00010468612
9.4303999e-07
0.00010446306
5.1622446e-07
0.00010434425
2.7030687e-07
0.00010428311
1.3819163e-07
0.00010425319
6.5914945e-08
0.00010423959
2.9236403e-08
0.0001042342
1.0754511e-08
0.00010423268
2.4063521e-09
0.00010423281
-1.0798793e-09
0.00010423352
-2.1159771e-09
0.00010423431
-2.1442751e-09
0.000104235
-1.7796993e-09
0.00010423553
-1.3484033e-09
0.00010423592
-9.6068615e-10
0.00010423618
-6.5787461e-10
0.00010423636
-4.3589778e-10
0.00010423648
-2.8168631e-10
0.00010423655
-1.7789446e-10
0.0001042366
-1.1017617e-10
0.00010423662
-6.6935052e-11
0.00010423664
-3.9935216e-11
0.00010423665
-2.3373073e-11
0.00010423666
-1.3413816e-11
0.00010423666
-7.532401e-12
0.00010423666
-4.1292474e-12
0.00010423666
-2.1963668e-12
0.00010423666
-1.1266426e-12
0.00010423666
-5.4695857e-13
0.00010423666
-2.4810493e-13
0.00010423666
-9.8558209e-14
0.00010423666
-2.9287385e-14
0.00010423666
2.7283004e-15
0.00010423666
1.1723864e-14
0.00010423666
1.3090444e-14
0.00010423666
9.6040988e-15
0.00010423666
8.3730173e-15
0.00010423666
8.2136426e-15
0.00010423666
8.717122e-15
0.00010423666
5.5171228e-15
0.00010423666
7.0545069e-15
0.00010423666
5.4580419e-15
0.00010423666
7.3787632e-15
0.00010423666
5.948862e-15
0.00010423666
6.1595742e-15
0.00010423666
4.9518911e-15
0.00010423666
5.189385e-15
0.00010423666
5.1449748e-15
0.00010423666
7.2077909e-15
0.00010423666
4.8511674e-15
0.00010423666
6.6869191e-15
0.00010423666
4.2694971e-15
0.00010423666
5.7211039e-15
0.00010423666
4.5295849e-15
0.00010423666
5.2882154e-15
0.00010423666
4.0573729e-15
0.00010423666
4.266054e-15
0.00010423666
3.9997869e-15
0.00010423666
4.7135133e-15
0.00010423666
4.7984975e-15
0.00010423666
5.6845503e-15
0.00010423666
4.8476302e-15
0.00010423666
5.7502223e-15
0.00010423666
4.7726095e-15
0.00010423666
5.3475004e-15
0.00010423666
4.6690813e-15
0.00010423666
5.1217717e-15
0.00010423666
4.4830624e-15
0.00010423666
4.9961474e-15
0.00010423666
5.2003581e-15
0.00010423666
6.1833461e-15
0.00010423666
6.2280801e-15
0.00010423666
5.7903983e-15
0.00010423666
3.6491557e-15
0.00010423666
1.5397936e-15
0.00010423666
-1.0527884e-15
0.00010423666
-2.6937942e-15
0.00010423666
-3.7433028e-15
0.00010423666
-4.1706813e-15
0.00010423666
-4.0955761e-15
0.00010423666
-4.1108278e-15
0.00010423666
-3.9871376e-15
0.00010423666
-4.207764e-15
0.00010423666
-4.1354828e-15
0.00010423666
-4.495978e-15
0.00010423666
-4.6000061e-15
0.00010423666
-5.0349745e-15
0.00010423666
-4.6274369e-15
0.00010423666
-4.3982243e-15
0.00010423666
-3.9191864e-15
0.00010423666
-4.3849281e-15
0.00010423666
-4.710477e-15
0.00010423666
-5.0284799e-15
0.00010423666
-3.7636699e-15
0.00010423666
-2.2968206e-15
0.00010423666
8.5666075e-16
0.00010423666
2.7843095e-15
0.00010423666
4.5464669e-15
0.00010423666
3.8711033e-15
0.00010423666
2.2182377e-15
0.00010423666
-4.5496184e-16
0.00010423666
-2.6372022e-15
0.00010423666
-4.3687211e-15
0.00010423666
-5.0467513e-15
0.00010423666
-5.3774979e-15
0.00010423666
-4.620461e-15
0.00010423666
-4.9775598e-15
0.00010423666
-5.039183e-15
0.00010423666
-6.1050944e-15
0.00010423666
-6.0222131e-15
0.00010423666
-5.5602333e-15
0.00010423666
-3.2108433e-15
0.00010423666
-1.0311095e-15
0.00010423666
1.7173243e-15
0.00010423666
3.2752707e-15
0.00010423666
4.448551e-15