/*--------------------------------*- C++ -*----------------------------------*\
| =========                 |                                                 |
| \\      /  F ield         | OpenFOAM: The Open Source CFD Toolbox           |
|  \\    /   O peration     | Version:  2206                                  |
|   \\  /    A nd           | Website:  www.openfoam.com                      |
|    \\/     M anipulation  |                                                 |
\*---------------------------------------------------------------------------*/
FoamFile
{
    version     2.0;
    format      ascii;
    arch        "LSB;label=32;scalar=64";
    class       volVectorField;
    location    "25";
    object      U;
}
// * * * * * * * * * * * * * * * * * * * * * * * * * * * * * * * * * * * * * //

dimensions      [0 1 -1 0 0 0 0];

internalField   nonuniform List<vector> 
15000
(
(0.15962853 0.053997677 0)
(0.11557193 0.0064916433 0)
(0.064251361 0.001414426 0)
(0.055918598 0.00074960718 0)
(0.047595817 0.00028827439 0)
(0.044708799 0.00019884723 0)
(0.042412495 9.0523725e-05 0)
(0.041406639 6.0127629e-05 0)
(0.040707476 2.8978067e-05 0)
(0.04037699 1.8018302e-05 0)
(0.040167797 8.6611019e-06 0)
(0.040068659 4.9952215e-06 0)
(0.040011053 2.2675844e-06 0)
(0.039985308 1.1741473e-06 0)
(0.039971973 4.472254e-07 0)
(0.039967049 1.7444797e-07 0)
(0.03996518 1.4560877e-08 0)
(0.039965128 -2.9869118e-08 0)
(0.039965544 -4.8482439e-08 0)
(0.039966152 -4.3155986e-08 0)
(0.03996668 -3.5724452e-08 0)
(0.039967111 -2.6056097e-08 0)
(0.039967422 -1.8577008e-08 0)
(0.039967642 -1.2494638e-08 0)
(0.03996779 -8.2722269e-09 0)
(0.039967887 -5.2801439e-09 0)
(0.039967949 -3.3227554e-09 0)
(0.039967988 -2.0368036e-09 0)
(0.039968012 -1.2315495e-09 0)
(0.039968026 -7.271725e-10 0)
(0.039968035 -4.2127202e-10 0)
(0.03996804 -2.3725051e-10 0)
(0.039968042 -1.3044133e-10 0)
(0.039968044 -6.9591552e-11 0)
(0.039968045 -3.5950454e-11 0)
(0.039968045 -1.7397618e-11 0)
(0.039968045 -7.9411892e-12 0)
(0.039968046 -3.0132399e-12 0)
(0.039968046 -1.143224e-12 0)
(0.039968046 -2.6215174e-13 0)
(0.039968046 -1.4885743e-14 0)
(0.039968046 3.8160738e-13 0)
(0.039968046 1.8129163e-13 0)
(0.039968046 1.1649474e-14 0)
(0.039968046 -4.5881542e-13 0)
(0.039968046 -4.6487104e-13 0)
(0.039968046 -1.7310438e-13 0)
(0.039968046 4.7415443e-13 0)
(0.039968046 6.071226e-13 0)
(0.039968046 1.1796156e-12 0)
(0.039968046 1.0667499e-12 0)
(0.039968046 1.2566007e-12 0)
(0.039968046 9.4215108e-13 0)
(0.039968046 9.0923064e-13 0)
(0.039968046 7.2257016e-13 0)
(0.039968046 7.4256534e-13 0)
(0.039968046 6.6729425e-13 0)
(0.039968046 8.8800476e-13 0)
(0.039968046 6.0604843e-13 0)
(0.039968046 8.8626208e-13 0)
(0.039968046 6.2672254e-13 0)
(0.039968046 8.023187e-13 0)
(0.039968046 5.7490803e-13 0)
(0.039968046 6.0563455e-13 0)
(0.039968046 4.0741829e-13 0)
(0.039968046 4.5015227e-13 0)
(0.039968046 4.5849295e-13 0)
(0.039968046 6.0860669e-13 0)
(0.039968046 6.6599598e-13 0)
(0.039968046 7.9986791e-13 0)
(0.039968046 7.0523906e-13 0)
(0.039968046 8.1873916e-13 0)
(0.039968046 6.9901214e-13 0)
(0.039968046 7.7905894e-13 0)
(0.039968046 7.0946117e-13 0)
(0.039968046 7.8810699e-13 0)
(0.039968046 7.1424454e-13 0)
(0.039968046 7.4216255e-13 0)
(0.039968046 7.2076224e-13 0)
(0.039968046 8.5094371e-13 0)
(0.039968046 9.1375585e-13 0)
(0.039968046 9.6565358e-13 0)
(0.039968046 7.8742236e-13 0)
(0.039968046 4.7657922e-13 0)
(0.039968046 5.8187694e-14 0)
(0.039968046 -2.7490841e-13 0)
(0.039968046 -4.7619925e-13 0)
(0.039968046 -5.8720721e-13 0)
(0.039968046 -6.0830561e-13 0)
(0.039968046 -6.4239049e-13 0)
(0.039968046 -6.4648433e-13 0)
(0.039968046 -6.8830275e-13 0)
(0.039968046 -6.7921528e-13 0)
(0.039968046 -7.0943536e-13 0)
(0.039968046 -7.0821068e-13 0)
(0.039968046 -7.6735263e-13 0)
(0.039968046 -7.3569481e-13 0)
(0.039968046 -7.0067866e-13 0)
(0.039968046 -6.0599609e-13 0)
(0.039968046 -6.4442038e-13 0)
(0.039968046 -7.0736462e-13 0)
(0.039968046 -8.4423215e-13 0)
(0.039968046 -8.0668931e-13 0)
(0.039968046 -6.5743841e-13 0)
(0.039968046 -1.9484682e-13 0)
(0.039968046 2.0729369e-13 0)
(0.039968046 5.2900917e-13 0)
(0.039968046 5.4678157e-13 0)
(0.039968046 3.9574224e-13 0)
(0.039968046 4.7324044e-14 0)
(0.039968046 -2.488695e-13 0)
(0.039968046 -5.0844633e-13 0)
(0.039968046 -6.3786156e-13 0)
(0.039968046 -7.2665962e-13 0)
(0.039968046 -6.6077532e-13 0)
(0.039968046 -6.981734e-13 0)
(0.039968046 -6.9722598e-13 0)
(0.039968046 -8.5160895e-13 0)
(0.039968046 -9.0721553e-13 0)
(0.039968046 -9.5167544e-13 0)
(0.039968046 -7.3152181e-13 0)
(0.039968046 -4.1886604e-13 0)
(0.039968046 1.2918568e-15 0)
(0.039968046 3.005051e-13 0)
(0.039968046 5.1077649e-13 0)
(0.039968046 5.9650766e-13 0)
(0.039968046 6.4663251e-13 0)
(0.039968046 6.4872864e-13 0)
(0.039968046 6.7486062e-13 0)
(0.039968046 6.7475843e-13 0)
(0.039968046 6.906912e-13 0)
(0.039968046 6.8224232e-13 0)
(0.039968046 6.8680909e-13 0)
(0.039968046 6.7633177e-13 0)
(0.039968046 6.7757725e-13 0)
(0.039968046 6.7069158e-13 0)
(0.039968046 6.7014981e-13 0)
(0.039968046 6.702719e-13 0)
(0.039968046 6.7188912e-13 0)
(0.039968046 6.786643e-13 0)
(0.039968046 6.791588e-13 0)
(0.039968046 6.9262099e-13 0)
(0.039968046 6.9572033e-13 0)
(0.039968046 7.1370016e-13 0)
(0.039968046 7.0402315e-13 0)
(0.039968046 7.1189456e-13 0)
(0.039968046 7.0622781e-13 0)
(0.039968046 7.4348629e-13 0)
(0.039968046 7.4349085e-13 0)
(0.039968046 7.3834585e-13 0)
(0.039968046 6.6394852e-13 0)
(0.039968046 6.6808783e-13 0)
(0.039968046 7.3387578e-13 0)
(0.039968046 8.7859853e-13 0)
(0.039968046 9.0607555e-13 0)
(0.039968046 8.1413871e-13 0)
(0.039968046 4.4240078e-13 0)
(0.039968046 3.588033e-14 0)
(0.039968046 -3.5628973e-13 0)
(0.039968046 -5.7736362e-13 0)
(0.039968046 -7.0070802e-13 0)
(0.039968046 -7.0522895e-13 0)
(0.039968046 -7.067471e-13 0)
(0.039968046 -6.7748134e-13 0)
(0.039968046 -7.1731656e-13 0)
(0.039968046 -7.0663584e-13 0)
(0.039968046 -7.4155268e-13 0)
(0.039968046 -7.179627e-13 0)
(0.039968046 -7.4272736e-13 0)
(0.039968046 -7.1489158e-13 0)
(0.039968046 -7.3702474e-13 0)
(0.039968046 -7.116985e-13 0)
(0.039968046 -7.3316749e-13 0)
(0.039968046 -7.097855e-13 0)
(0.039968046 -7.316812e-13 0)
(0.039968046 -7.1031724e-13 0)
(0.039968046 -7.3201421e-13 0)
(0.039968046 -7.065745e-13 0)
(0.039968046 -7.2298506e-13 0)
(0.039968046 -7.0056456e-13 0)
(0.039968046 -7.1432658e-13 0)
(0.039968046 -6.9540879e-13 0)
(0.039968046 -6.953961e-13 0)
(0.039968046 -6.8332066e-13 0)
(0.039968046 -6.915704e-13 0)
(0.039968046 -6.9524485e-13 0)
(0.039968046 -6.9923096e-13 0)
(0.039968046 -6.957067e-13 0)
(0.039968046 -6.8684905e-13 0)
(0.039968046 -6.8495879e-13 0)
(0.039968046 -6.7869881e-13 0)
(0.039968046 -6.8838235e-13 0)
(0.039968046 -6.9814162e-13 0)
(0.039968046 -7.2953219e-13 0)
(0.039968046 -7.1770393e-13 0)
(0.039968046 -6.9096438e-13 0)
(0.039968046 -6.3153078e-13 0)
(0.039968046 -6.7808496e-13 0)
(0.039968046 -7.6915257e-13 0)
(0.039968046 -9.1281723e-13 0)
(0.039968046 -9.1765886e-13 0)
(0.039968046 -7.5758263e-13 0)
(0.039968046 -3.6937112e-13 0)
(0.039968046 2.3025321e-14 0)
(0.039968046 3.5697571e-13 0)
(0.039968046 4.8664321e-13 0)
(0.039968046 5.6566543e-13 0)
(0.039968046 6.1131167e-13 0)
(0.039968046 7.5562316e-13 0)
(0.039968046 8.361966e-13 0)
(0.039968046 8.6528842e-13 0)
(0.039968046 6.5611859e-13 0)
(0.039968046 2.9361715e-13 0)
(0.039968046 -1.1693207e-13 0)
(0.039968046 -4.5753848e-13 0)
(0.039968046 -6.3641242e-13 0)
(0.039968046 -6.8628401e-13 0)
(0.039968046 -6.6161542e-13 0)
(0.039968046 -7.0055264e-13 0)
(0.039968046 -8.0998713e-13 0)
(0.039968046 -9.5005615e-13 0)
(0.039968046 -9.8118185e-13 0)
(0.039968046 -8.0926075e-13 0)
(0.039968046 -4.3763023e-13 0)
(0.039968046 -3.4590025e-15 0)
(0.039968046 3.6383939e-13 0)
(0.039968046 5.9530776e-13 0)
(0.039968046 7.1556648e-13 0)
(0.039968046 6.9709917e-13 0)
(0.039968046 6.7166308e-13 0)
(0.039968046 6.7747909e-13 0)
(0.039968046 8.052324e-13 0)
(0.039968046 9.1915857e-13 0)
(0.039968046 9.8262351e-13 0)
(0.039968046 8.0029123e-13 0)
(0.039968046 4.9757698e-13 0)
(0.039968046 1.1057311e-13 0)
(0.039968046 -2.4825133e-13 0)
(0.039968046 -5.5560061e-13 0)
(0.039968046 -7.8907816e-13 0)
(0.039968046 -8.3714872e-13 0)
(0.039968046 -7.2435832e-13 0)
(0.039968046 -3.7647525e-13 0)
(0.039968046 3.1901529e-14 0)
(0.039968046 3.8550386e-13 0)
(0.039968046 5.8539795e-13 0)
(0.039968046 6.4616707e-13 0)
(0.039968046 6.6382077e-13 0)
(0.039968046 7.4961589e-13 0)
(0.039968046 8.6504287e-13 0)
(0.039968046 9.418769e-13 0)
(0.039968046 8.6539511e-13 0)
(0.039968046 5.7944672e-13 0)
(0.039968046 1.5560503e-13 0)
(0.039968046 -2.2827258e-13 0)
(0.039968046 -5.0265519e-13 0)
(0.039968046 -6.5035562e-13 0)
(0.039968046 -7.0029739e-13 0)
(0.039968046 -7.1497905e-13 0)
(0.039968046 -7.262631e-13 0)
(0.039968046 -7.5552096e-13 0)
(0.039968046 -7.5731088e-13 0)
(0.039968046 -7.2522363e-13 0)
(0.039968046 -6.779821e-13 0)
(0.039968046 -7.0493242e-13 0)
(0.039968046 -7.9925279e-13 0)
(0.039968046 -9.2463121e-13 0)
(0.039968046 -9.2976036e-13 0)
(0.039968046 -7.3645308e-13 0)
(0.039968046 -3.7724933e-13 0)
(0.039968046 3.2439603e-15 0)
(0.039968046 2.8478343e-13 0)
(0.039968046 5.223664e-13 0)
(0.039968046 7.2112783e-13 0)
(0.039968046 8.7505319e-13 0)
(0.039968046 9.2364301e-13 0)
(0.039968046 7.4348396e-13 0)
(0.039968046 4.1447308e-13 0)
(0.039968046 -3.1373093e-15 0)
(0.039968046 -3.3738576e-13 0)
(0.039968046 -5.5190191e-13 0)
(0.039968046 -6.6366491e-13 0)
(0.039968046 -6.8726491e-13 0)
(0.039968046 -6.9102469e-13 0)
(0.039968046 -6.871298e-13 0)
(0.039968046 -7.0042028e-13 0)
(0.039968046 -7.1238777e-13 0)
(0.039968046 -7.3832455e-13 0)
(0.039968046 -7.3783639e-13 0)
(0.039968046 -7.437996e-13 0)
(0.039968046 -7.15256e-13 0)
(0.039968046 -7.18811e-13 0)
(0.039968046 -7.3661543e-13 0)
(0.039968046 -7.7157998e-13 0)
(0.039968046 -7.0142361e-13 0)
(0.039968046 -6.0880398e-13 0)
(0.039968046 -6.9734098e-13 0)
(0.039968046 -9.7594461e-13 0)
(0.039968046 -9.4748128e-13 0)
(0.039968046 -3.9521426e-13 0)
(0.36732383 0.14062829 0)
(0.29754389 0.02507939 0)
(0.1860793 0.0083694795 0)
(0.16132807 0.004121896 0)
(0.13901859 0.0019375982 0)
(0.13040448 0.0011770351 0)
(0.12396461 0.00061113186 0)
(0.12095999 0.00037191589 0)
(0.1189454 0.0001972594 0)
(0.11794826 0.00011563497 0)
(0.11733081 6.0256006e-05 0)
(0.11702581 3.3414095e-05 0)
(0.11685065 1.651215e-05 0)
(0.11676842 8.3942232e-06 0)
(0.1167257 3.6650667e-06 0)
(0.11670834 1.5224045e-06 0)
(0.1167012 4.005974e-07 0)
(0.11669986 -2.7315761e-08 0)
(0.1167004 -1.986057e-07 0)
(0.11670175 -2.1569033e-07 0)
(0.11670304 -1.9027846e-07 0)
(0.11670415 -1.4607967e-07 0)
(0.11670497 -1.0649579e-07 0)
(0.11670557 -7.3430777e-08 0)
(0.11670597 -4.9267677e-08 0)
(0.11670624 -3.1981892e-08 0)
(0.11670642 -2.0355323e-08 0)
(0.11670653 -1.2652231e-08 0)
(0.11670659 -7.7330107e-09 0)
(0.11670664 -4.6286876e-09 0)
(0.11670666 -2.7198437e-09 0)
(0.11670667 -1.562143e-09 0)
(0.11670668 -8.7842263e-10 0)
(0.11670669 -4.8176141e-10 0)
(0.11670669 -2.5707977e-10 0)
(0.11670669 -1.3140761e-10 0)
(0.11670669 -6.4129103e-11 0)
(0.11670669 -2.8576387e-11 0)
(0.11670669 -1.2021235e-11 0)
(0.11670669 -4.0489635e-12 0)
(0.11670669 -7.786808e-13 0)
(0.11670669 1.2875934e-12 0)
(0.11670669 1.1696709e-12 0)
(0.11670669 6.4057471e-13 0)
(0.11670669 -7.6926871e-13 0)
(0.11670669 -9.7326455e-13 0)
(0.11670669 -2.2645248e-13 0)
(0.11670669 1.4160189e-12 0)
(0.11670669 1.9262482e-12 0)
(0.11670669 3.3819989e-12 0)
(0.11670669 3.1803759e-12 0)
(0.11670669 3.6151327e-12 0)
(0.11670669 2.8212574e-12 0)
(0.11670669 2.6732854e-12 0)
(0.11670669 2.1943036e-12 0)
(0.11670669 2.2148612e-12 0)
(0.11670669 2.0225907e-12 0)
(0.11670669 2.5137163e-12 0)
(0.11670669 1.8382957e-12 0)
(0.11670669 2.4794086e-12 0)
(0.11670669 1.8656538e-12 0)
(0.11670669 2.2721068e-12 0)
(0.11670669 1.7163939e-12 0)
(0.11670669 1.7356264e-12 0)
(0.11670669 1.228306e-12 0)
(0.11670669 1.3202592e-12 0)
(0.11670669 1.3793889e-12 0)
(0.11670669 1.7962751e-12 0)
(0.11670669 1.9684661e-12 0)
(0.11670669 2.2953329e-12 0)
(0.11670669 2.0833745e-12 0)
(0.11670669 2.3400105e-12 0)
(0.11670669 2.0501448e-12 0)
(0.11670669 2.2207493e-12 0)
(0.11670669 2.0668521e-12 0)
(0.11670669 2.2565348e-12 0)
(0.11670669 2.0822711e-12 0)
(0.11670669 2.1301795e-12 0)
(0.11670669 2.0925652e-12 0)
(0.11670669 2.4251636e-12 0)
(0.11670669 2.6492639e-12 0)
(0.11670669 2.7821957e-12 0)
(0.11670669 2.2859149e-12 0)
(0.11670669 1.382255e-12 0)
(0.11670669 1.5495821e-13 0)
(0.11670669 -8.1310948e-13 0)
(0.11670669 -1.4062386e-12 0)
(0.11670669 -1.7245785e-12 0)
(0.11670669 -1.7817614e-12 0)
(0.11670669 -1.8747337e-12 0)
(0.11670669 -1.8861922e-12 0)
(0.11670669 -2.0058735e-12 0)
(0.11670669 -1.9817494e-12 0)
(0.11670669 -2.0644507e-12 0)
(0.11670669 -2.0659884e-12 0)
(0.11670669 -2.2308319e-12 0)
(0.11670669 -2.1491676e-12 0)
(0.11670669 -2.048345e-12 0)
(0.11670669 -1.7765627e-12 0)
(0.11670669 -1.8667092e-12 0)
(0.11670669 -2.0639287e-12 0)
(0.11670669 -2.4467047e-12 0)
(0.11670669 -2.3545554e-12 0)
(0.11670669 -1.9246018e-12 0)
(0.11670669 -5.7411912e-13 0)
(0.11670669 5.947739e-13 0)
(0.11670669 1.5500318e-12 0)
(0.11670669 1.6018268e-12 0)
(0.11670669 1.1418945e-12 0)
(0.11670669 1.5057755e-13 0)
(0.11670669 -7.2942808e-13 0)
(0.11670669 -1.4574914e-12 0)
(0.11670669 -1.8392191e-12 0)
(0.11670669 -2.0751878e-12 0)
(0.11670669 -1.9140503e-12 0)
(0.11670669 -2.0070351e-12 0)
(0.11670669 -2.0198067e-12 0)
(0.11670669 -2.4440492e-12 0)
(0.11670669 -2.6365898e-12 0)
(0.11670669 -2.7501141e-12 0)
(0.11670669 -2.123554e-12 0)
(0.11670669 -1.2222913e-12 0)
(0.11670669 1.4215098e-14 0)
(0.11670669 8.8008999e-13 0)
(0.11670669 1.4994899e-12 0)
(0.11670669 1.7449369e-12 0)
(0.11670669 1.8865999e-12 0)
(0.11670669 1.8964981e-12 0)
(0.11670669 1.9667304e-12 0)
(0.11670669 1.9703481e-12 0)
(0.11670669 2.0136295e-12 0)
(0.11670669 1.9926418e-12 0)
(0.11670669 2.0039505e-12 0)
(0.11670669 1.9762093e-12 0)
(0.11670669 1.9780234e-12 0)
(0.11670669 1.9596927e-12 0)
(0.11670669 1.957825e-12 0)
(0.11670669 1.9575719e-12 0)
(0.11670669 1.9622636e-12 0)
(0.11670669 1.982286e-12 0)
(0.11670669 1.9845065e-12 0)
(0.11670669 2.0219036e-12 0)
(0.11670669 2.0335204e-12 0)
(0.11670669 2.0843834e-12 0)
(0.11670669 2.0595011e-12 0)
(0.11670669 2.0795476e-12 0)
(0.11670669 2.0665455e-12 0)
(0.11670669 2.1691109e-12 0)
(0.11670669 2.1791307e-12 0)
(0.11670669 2.1586456e-12 0)
(0.11670669 1.9473569e-12 0)
(0.11670669 1.9473044e-12 0)
(0.11670669 2.1471235e-12 0)
(0.11670669 2.5552363e-12 0)
(0.11670669 2.6542132e-12 0)
(0.11670669 2.383271e-12 0)
(0.11670669 1.3129395e-12 0)
(0.11670669 1.3301422e-13 0)
(0.11670669 -1.0293896e-12 0)
(0.11670669 -1.6754324e-12 0)
(0.11670669 -2.0231451e-12 0)
(0.11670669 -2.0467203e-12 0)
(0.11670669 -2.048902e-12 0)
(0.11670669 -1.9690707e-12 0)
(0.11670669 -2.0790968e-12 0)
(0.11670669 -2.0547166e-12 0)
(0.11670669 -2.1463039e-12 0)
(0.11670669 -2.0880023e-12 0)
(0.11670669 -2.1510392e-12 0)
(0.11670669 -2.0802564e-12 0)
(0.11670669 -2.1362732e-12 0)
(0.11670669 -2.0725582e-12 0)
(0.11670669 -2.127619e-12 0)
(0.11670669 -2.0691662e-12 0)
(0.11670669 -2.1248852e-12 0)
(0.11670669 -2.0711103e-12 0)
(0.11670669 -2.1270893e-12 0)
(0.11670669 -2.0616266e-12 0)
(0.11670669 -2.1002314e-12 0)
(0.11670669 -2.0464747e-12 0)
(0.11670669 -2.0759794e-12 0)
(0.11670669 -2.0355132e-12 0)
(0.11670669 -2.0262789e-12 0)
(0.11670669 -1.9993301e-12 0)
(0.11670669 -2.0201471e-12 0)
(0.11670669 -2.0331833e-12 0)
(0.11670669 -2.0462372e-12 0)
(0.11670669 -2.034568e-12 0)
(0.11670669 -2.0128829e-12 0)
(0.11670669 -2.0072266e-12 0)
(0.11670669 -1.993952e-12 0)
(0.11670669 -2.0243945e-12 0)
(0.11670669 -2.0571992e-12 0)
(0.11670669 -2.1476818e-12 0)
(0.11670669 -2.1225275e-12 0)
(0.11670669 -2.0407103e-12 0)
(0.11670669 -1.8683265e-12 0)
(0.11670669 -1.987422e-12 0)
(0.11670669 -2.2529827e-12 0)
(0.11670669 -2.6441208e-12 0)
(0.11670669 -2.6609168e-12 0)
(0.11670669 -2.1896548e-12 0)
(0.11670669 -1.0668137e-12 0)
(0.11670669 8.2191529e-14 0)
(0.11670669 1.0662656e-12 0)
(0.11670669 1.4544671e-12 0)
(0.11670669 1.6637947e-12 0)
(0.11670669 1.7961335e-12 0)
(0.11670669 2.1995314e-12 0)
(0.11670669 2.455398e-12 0)
(0.11670669 2.5265193e-12 0)
(0.11670669 1.9329718e-12 0)
(0.11670669 8.7698722e-13 0)
(0.11670669 -3.2173509e-13 0)
(0.11670669 -1.3182653e-12 0)
(0.11670669 -1.8467043e-12 0)
(0.11670669 -1.9823394e-12 0)
(0.11670669 -1.906634e-12 0)
(0.11670669 -2.0027604e-12 0)
(0.11670669 -2.3247852e-12 0)
(0.11670669 -2.726952e-12 0)
(0.11670669 -2.8248605e-12 0)
(0.11670669 -2.3348978e-12 0)
(0.11670669 -1.2714034e-12 0)
(0.11670669 -1.0994479e-15 0)
(0.11670669 1.0551758e-12 0)
(0.11670669 1.7376202e-12 0)
(0.11670669 2.0715948e-12 0)
(0.11670669 2.0229145e-12 0)
(0.11670669 1.9403684e-12 0)
(0.11670669 1.9500191e-12 0)
(0.11670669 2.3055431e-12 0)
(0.11670669 2.6604677e-12 0)
(0.11670669 2.8323885e-12 0)
(0.11670669 2.3141128e-12 0)
(0.11670669 1.4405121e-12 0)
(0.11670669 3.0274906e-13 0)
(0.11670669 -7.2276653e-13 0)
(0.11670669 -1.63373e-12 0)
(0.11670669 -2.2942941e-12 0)
(0.11670669 -2.451098e-12 0)
(0.11670669 -2.1211886e-12 0)
(0.11670669 -1.1164727e-12 0)
(0.11670669 5.9779574e-14 0)
(0.11670669 1.1145119e-12 0)
(0.11670669 1.6914511e-12 0)
(0.11670669 1.8635547e-12 0)
(0.11670669 1.9098951e-12 0)
(0.11670669 2.1474499e-12 0)
(0.11670669 2.4870236e-12 0)
(0.11670669 2.7230204e-12 0)
(0.11670669 2.5117527e-12 0)
(0.11670669 1.6854735e-12 0)
(0.11670669 4.7369005e-13 0)
(0.11670669 -6.6487508e-13 0)
(0.11670669 -1.4588832e-12 0)
(0.11670669 -1.8878084e-12 0)
(0.11670669 -2.0290913e-12 0)
(0.11670669 -2.0679302e-12 0)
(0.11670669 -2.0996892e-12 0)
(0.11670669 -2.1843124e-12 0)
(0.11670669 -2.198606e-12 0)
(0.11670669 -2.1055604e-12 0)
(0.11670669 -1.9684738e-12 0)
(0.11670669 -2.0279194e-12 0)
(0.11670669 -2.3105138e-12 0)
(0.11670669 -2.6696187e-12 0)
(0.11670669 -2.6955494e-12 0)
(0.11670669 -2.1346642e-12 0)
(0.11670669 -1.0959251e-12 0)
(0.11670669 1.8306875e-14 0)
(0.11670669 8.3912929e-13 0)
(0.11670669 1.5210062e-12 0)
(0.11670669 2.0847541e-12 0)
(0.11670669 2.5375672e-12 0)
(0.11670669 2.6710957e-12 0)
(0.11670669 2.1630565e-12 0)
(0.11670669 1.2121101e-12 0)
(0.11670669 -1.8948151e-14 0)
(0.11670669 -9.800754e-13 0)
(0.11670669 -1.6206103e-12 0)
(0.11670669 -1.9322504e-12 0)
(0.11670669 -2.0035652e-12 0)
(0.11670669 -2.0090067e-12 0)
(0.11670669 -1.9984685e-12 0)
(0.11670669 -2.039734e-12 0)
(0.11670669 -2.0773992e-12 0)
(0.11670669 -2.1447679e-12 0)
(0.11670669 -2.1512084e-12 0)
(0.11670669 -2.1609618e-12 0)
(0.11670669 -2.0838621e-12 0)
(0.11670669 -2.0827796e-12 0)
(0.11670669 -2.1389338e-12 0)
(0.11670669 -2.2400812e-12 0)
(0.11670669 -2.0482874e-12 0)
(0.11670669 -1.7686053e-12 0)
(0.11670669 -2.0013193e-12 0)
(0.11670669 -2.7967509e-12 0)
(0.11670669 -2.7796677e-12 0)
(0.11670669 -1.2225121e-12 0)
(0.50390834 0.19019021 0)
(0.4384704 0.050431512 0)
(0.29767008 0.022055335 0)
(0.25944374 0.010780124 0)
(0.22598939 0.0055621619 0)
(0.21213187 0.0032308146 0)
(0.20205719 0.001773296 0)
(0.19716897 0.0010457353 0)
(0.19394744 0.00057678594 0)
(0.19230772 0.00033132407 0)
(0.19130242 0.00017832169 0)
(0.19079327 9.7722227e-05 0)
(0.19050201 4.9921604e-05 0)
(0.1903612 2.5326942e-05 0)
(0.19028762 1.1621298e-05 0)
(0.19025609 4.9702145e-06 0)
(0.1902425 1.5975072e-06 0)
(0.19023894 1.7428784e-07 0)
(0.19023899 -3.9929614e-07 0)
(0.19024063 -5.2221128e-07 0)
(0.19024241 -4.8483847e-07 0)
(0.19024402 -3.8485847e-07 0)
(0.19024524 -2.8494906e-07 0)
(0.19024615 -1.9939288e-07 0)
(0.19024677 -1.3493425e-07 0)
(0.19024719 -8.8427352e-08 0)
(0.19024746 -5.6661288e-08 0)
(0.19024763 -3.548475e-08 0)
(0.19024774 -2.1819616e-08 0)
(0.1902478 -1.315435e-08 0)
(0.19024784 -7.7869455e-09 0)
(0.19024787 -4.5157466e-09 0)
(0.19024788 -2.566144e-09 0)
(0.19024789 -1.4249239e-09 0)
(0.19024789 -7.7115308e-10 0)
(0.19024789 -4.0284848e-10 0)
(0.1902479 -2.0198433e-10 0)
(0.1902479 -9.4590659e-11 0)
(0.1902479 -4.1324063e-11 0)
(0.1902479 -1.519999e-11 0)
(0.1902479 -3.6521717e-12 0)
(0.1902479 2.1320712e-12 0)
(0.1902479 2.9519149e-12 0)
(0.1902479 2.4016058e-12 0)
(0.1902479 3.7506876e-13 0)
(0.1902479 -8.864526e-14 0)
(0.1902479 6.6110977e-13 0)
(0.1902479 2.5058194e-12 0)
(0.1902479 2.7935007e-12 0)
(0.1902479 4.5552693e-12 0)
(0.1902479 4.1752152e-12 0)
(0.1902479 4.8108879e-12 0)
(0.1902479 3.7698384e-12 0)
(0.1902479 3.6064898e-12 0)
(0.1902479 2.9639878e-12 0)
(0.1902479 3.0206331e-12 0)
(0.1902479 2.8209534e-12 0)
(0.1902479 3.5513213e-12 0)
(0.1902479 2.5802175e-12 0)
(0.1902479 3.4490627e-12 0)
(0.1902479 2.54621e-12 0)
(0.1902479 3.1285441e-12 0)
(0.1902479 2.4008859e-12 0)
(0.1902479 2.4720077e-12 0)
(0.1902479 1.7876962e-12 0)
(0.1902479 1.899184e-12 0)
(0.1902479 1.9528421e-12 0)
(0.1902479 2.4958286e-12 0)
(0.1902479 2.7080175e-12 0)
(0.1902479 3.1512641e-12 0)
(0.1902479 2.8513532e-12 0)
(0.1902479 3.2076907e-12 0)
(0.1902479 2.8011207e-12 0)
(0.1902479 3.031116e-12 0)
(0.1902479 2.8056494e-12 0)
(0.1902479 3.0512062e-12 0)
(0.1902479 2.8073558e-12 0)
(0.1902479 2.8978897e-12 0)
(0.1902479 2.8814846e-12 0)
(0.1902479 3.3402761e-12 0)
(0.1902479 3.610124e-12 0)
(0.1902479 3.7180606e-12 0)
(0.1902479 2.9505473e-12 0)
(0.1902479 1.7092303e-12 0)
(0.1902479 6.6377363e-14 0)
(0.1902479 -1.2038521e-12 0)
(0.1902479 -1.97959e-12 0)
(0.1902479 -2.3860431e-12 0)
(0.1902479 -2.4402735e-12 0)
(0.1902479 -2.5446317e-12 0)
(0.1902479 -2.5443598e-12 0)
(0.1902479 -2.7007124e-12 0)
(0.1902479 -2.6669735e-12 0)
(0.1902479 -2.7934069e-12 0)
(0.1902479 -2.8065897e-12 0)
(0.1902479 -3.0310343e-12 0)
(0.1902479 -2.9025262e-12 0)
(0.1902479 -2.7655065e-12 0)
(0.1902479 -2.4145062e-12 0)
(0.1902479 -2.5550965e-12 0)
(0.1902479 -2.8120038e-12 0)
(0.1902479 -3.2806806e-12 0)
(0.1902479 -3.0539239e-12 0)
(0.1902479 -2.4190257e-12 0)
(0.1902479 -5.8430671e-13 0)
(0.1902479 9.4554718e-13 0)
(0.1902479 2.1999102e-12 0)
(0.1902479 2.1973444e-12 0)
(0.1902479 1.5098828e-12 0)
(0.1902479 1.3331743e-13 0)
(0.1902479 -1.0826194e-12 0)
(0.1902479 -2.0686026e-12 0)
(0.1902479 -2.567244e-12 0)
(0.1902479 -2.8623106e-12 0)
(0.1902479 -2.620718e-12 0)
(0.1902479 -2.7567672e-12 0)
(0.1902479 -2.783858e-12 0)
(0.1902479 -3.3628325e-12 0)
(0.1902479 -3.5833317e-12 0)
(0.1902479 -3.6603036e-12 0)
(0.1902479 -2.7250556e-12 0)
(0.1902479 -1.4849108e-12 0)
(0.1902479 1.8580602e-13 0)
(0.1902479 1.329393e-12 0)
(0.1902479 2.1464888e-12 0)
(0.1902479 2.4480768e-12 0)
(0.1902479 2.6136418e-12 0)
(0.1902479 2.601333e-12 0)
(0.1902479 2.6763969e-12 0)
(0.1902479 2.6677387e-12 0)
(0.1902479 2.721214e-12 0)
(0.1902479 2.6896287e-12 0)
(0.1902479 2.7038328e-12 0)
(0.1902479 2.6649027e-12 0)
(0.1902479 2.6654956e-12 0)
(0.1902479 2.6391238e-12 0)
(0.1902479 2.6349837e-12 0)
(0.1902479 2.6350254e-12 0)
(0.1902479 2.6404828e-12 0)
(0.1902479 2.6714876e-12 0)
(0.1902479 2.6752613e-12 0)
(0.1902479 2.7337309e-12 0)
(0.1902479 2.7516313e-12 0)
(0.1902479 2.8270276e-12 0)
(0.1902479 2.7933733e-12 0)
(0.1902479 2.8312308e-12 0)
(0.1902479 2.8196591e-12 0)
(0.1902479 2.9655233e-12 0)
(0.1902479 2.9691537e-12 0)
(0.1902479 2.9387493e-12 0)
(0.1902479 2.65968e-12 0)
(0.1902479 2.6916172e-12 0)
(0.1902479 2.9768797e-12 0)
(0.1902479 3.5028305e-12 0)
(0.1902479 3.5458134e-12 0)
(0.1902479 3.0922115e-12 0)
(0.1902479 1.5955175e-12 0)
(0.1902479 2.1412844e-14 0)
(0.1902479 -1.5307024e-12 0)
(0.1902479 -2.3787899e-12 0)
(0.1902479 -2.8325566e-12 0)
(0.1902479 -2.8471063e-12 0)
(0.1902479 -2.8280124e-12 0)
(0.1902479 -2.6899756e-12 0)
(0.1902479 -2.8232633e-12 0)
(0.1902479 -2.7819247e-12 0)
(0.1902479 -2.9069553e-12 0)
(0.1902479 -2.8295198e-12 0)
(0.1902479 -2.9191024e-12 0)
(0.1902479 -2.825176e-12 0)
(0.1902479 -2.9046252e-12 0)
(0.1902479 -2.8199319e-12 0)
(0.1902479 -2.8978712e-12 0)
(0.1902479 -2.8204709e-12 0)
(0.1902479 -2.8993569e-12 0)
(0.1902479 -2.8270489e-12 0)
(0.1902479 -2.9032572e-12 0)
(0.1902479 -2.8122103e-12 0)
(0.1902479 -2.8627469e-12 0)
(0.1902479 -2.7891491e-12 0)
(0.1902479 -2.8255802e-12 0)
(0.1902479 -2.7721463e-12 0)
(0.1902479 -2.7553533e-12 0)
(0.1902479 -2.7224551e-12 0)
(0.1902479 -2.749855e-12 0)
(0.1902479 -2.767607e-12 0)
(0.1902479 -2.7814532e-12 0)
(0.1902479 -2.7673284e-12 0)
(0.1902479 -2.7410228e-12 0)
(0.1902479 -2.7395249e-12 0)
(0.1902479 -2.7255849e-12 0)
(0.1902479 -2.7753929e-12 0)
(0.1902479 -2.8241e-12 0)
(0.1902479 -2.9456714e-12 0)
(0.1902479 -2.8971161e-12 0)
(0.1902479 -2.7817255e-12 0)
(0.1902479 -2.5553642e-12 0)
(0.1902479 -2.7331974e-12 0)
(0.1902479 -3.0808108e-12 0)
(0.1902479 -3.5439931e-12 0)
(0.1902479 -3.4656382e-12 0)
(0.1902479 -2.7581754e-12 0)
(0.1902479 -1.2204623e-12 0)
(0.1902479 3.0497293e-13 0)
(0.1902479 1.6032658e-12 0)
(0.1902479 2.100571e-12 0)
(0.1902479 2.3787525e-12 0)
(0.1902479 2.5529435e-12 0)
(0.1902479 3.07325e-12 0)
(0.1902479 3.3512473e-12 0)
(0.1902479 3.3404623e-12 0)
(0.1902479 2.459921e-12 0)
(0.1902479 1.0130432e-12 0)
(0.1902479 -5.8858247e-13 0)
(0.1902479 -1.9082881e-12 0)
(0.1902479 -2.5813609e-12 0)
(0.1902479 -2.7334271e-12 0)
(0.1902479 -2.6199586e-12 0)
(0.1902479 -2.7533261e-12 0)
(0.1902479 -3.1817848e-12 0)
(0.1902479 -3.6791847e-12 0)
(0.1902479 -3.7156679e-12 0)
(0.1902479 -2.980177e-12 0)
(0.1902479 -1.5316405e-12 0)
(0.1902479 1.558344e-13 0)
(0.1902479 1.5423177e-12 0)
(0.1902479 2.4305855e-12 0)
(0.1902479 2.8466036e-12 0)
(0.1902479 2.7517428e-12 0)
(0.1902479 2.6357764e-12 0)
(0.1902479 2.661722e-12 0)
(0.1902479 3.148339e-12 0)
(0.1902479 3.5934399e-12 0)
(0.1902479 3.7388632e-12 0)
(0.1902479 2.9576641e-12 0)
(0.1902479 1.7624375e-12 0)
(0.1902479 2.3150858e-13 0)
(0.1902479 -1.1400729e-12 0)
(0.1902479 -2.35332e-12 0)
(0.1902479 -3.1846964e-12 0)
(0.1902479 -3.2892437e-12 0)
(0.1902479 -2.7459176e-12 0)
(0.1902479 -1.3406457e-12 0)
(0.1902479 2.2970339e-13 0)
(0.1902479 1.624664e-12 0)
(0.1902479 2.3674437e-12 0)
(0.1902479 2.5832894e-12 0)
(0.1902479 2.6503513e-12 0)
(0.1902479 2.971406e-12 0)
(0.1902479 3.3982435e-12 0)
(0.1902479 3.6440283e-12 0)
(0.1902479 3.262807e-12 0)
(0.1902479 2.0963214e-12 0)
(0.1902479 4.7151171e-13 0)
(0.1902479 -1.0375374e-12 0)
(0.1902479 -2.0768768e-12 0)
(0.1902479 -2.6325497e-12 0)
(0.1902479 -2.8011007e-12 0)
(0.1902479 -2.8376906e-12 0)
(0.1902479 -2.8655253e-12 0)
(0.1902479 -2.9697474e-12 0)
(0.1902479 -2.976314e-12 0)
(0.1902479 -2.8477495e-12 0)
(0.1902479 -2.6777954e-12 0)
(0.1902479 -2.7857069e-12 0)
(0.1902479 -3.1748624e-12 0)
(0.1902479 -3.6189508e-12 0)
(0.1902479 -3.5549419e-12 0)
(0.1902479 -2.7221127e-12 0)
(0.1902479 -1.3058846e-12 0)
(0.1902479 1.7661178e-13 0)
(0.1902479 1.269511e-12 0)
(0.1902479 2.1944711e-12 0)
(0.1902479 2.9365523e-12 0)
(0.1902479 3.4837927e-12 0)
(0.1902479 3.5515255e-12 0)
(0.1902479 2.766332e-12 0)
(0.1902479 1.4555816e-12 0)
(0.1902479 -1.9445081e-13 0)
(0.1902479 -1.455698e-12 0)
(0.1902479 -2.2946826e-12 0)
(0.1902479 -2.6878759e-12 0)
(0.1902479 -2.7571593e-12 0)
(0.1902479 -2.7448217e-12 0)
(0.1902479 -2.7173447e-12 0)
(0.1902479 -2.7712559e-12 0)
(0.1902479 -2.8208881e-12 0)
(0.1902479 -2.9127775e-12 0)
(0.1902479 -2.920002e-12 0)
(0.1902479 -2.9315503e-12 0)
(0.1902479 -2.8251665e-12 0)
(0.1902479 -2.8285478e-12 0)
(0.1902479 -2.9068705e-12 0)
(0.1902479 -3.0322986e-12 0)
(0.1902479 -2.7504425e-12 0)
(0.1902479 -2.4056626e-12 0)
(0.1902479 -2.7760197e-12 0)
(0.1902479 -3.8198677e-12 0)
(0.1902479 -3.6426473e-12 0)
(0.1902479 -1.5353126e-12 0)
(0.59346672 0.2146733 0)
(0.54593347 0.075998413 0)
(0.39702192 0.03931231 0)
(0.34953973 0.019720573 0)
(0.30792187 0.010726751 0)
(0.28963523 0.0061583906 0)
(0.27651264 0.0034761925 0)
(0.26994405 0.0020291053 0)
(0.26565503 0.0011409844 0)
(0.26342423 0.00065139818 0)
(0.26206335 0.00035632547 0)
(0.26136077 0.00019486835 0)
(0.26095907 0.00010129205 0)
(0.26076048 5.1591485e-05 0)
(0.260656 2.4317426e-05 0)
(0.26060945 1.064559e-05 0)
(0.26058866 3.7620584e-06 0)
(0.26058217 7.1278209e-07 0)
(0.26058122 -5.4180125e-07 0)
(0.26058278 -8.8364551e-07 0)
(0.2605848 -8.6419897e-07 0)
(0.26058673 -7.0536661e-07 0)
(0.26058825 -5.2970451e-07 0)
(0.26058939 -3.7493629e-07 0)
(0.26059018 -2.5561595e-07 0)
(0.26059072 -1.6870712e-07 0)
(0.26059108 -1.0868668e-07 0)
(0.2605913 -6.8438368e-08 0)
(0.26059144 -4.2277808e-08 0)
(0.26059153 -2.561717e-08 0)
(0.26059159 -1.5243214e-08 0)
(0.26059162 -8.8947949e-09 0)
(0.26059163 -5.0883555e-09 0)
(0.26059165 -2.8470248e-09 0)
(0.26059165 -1.554233e-09 0)
(0.26059165 -8.2207524e-10 0)
(0.26059166 -4.1873745e-10 0)
(0.26059166 -2.0110432e-10 0)
(0.26059166 -9.0090343e-11 0)
(0.26059166 -3.4897647e-11 0)
(0.26059166 -9.7035898e-12 0)
(0.26059166 2.1066918e-12 0)
(0.26059166 4.9269191e-12 0)
(0.26059166 5.0083292e-12 0)
(0.26059166 2.9979018e-12 0)
(0.26059166 2.4266776e-12 0)
(0.26059166 2.7062026e-12 0)
(0.26059166 3.7483766e-12 0)
(0.26059166 2.8707265e-12 0)
(0.26059166 4.1933888e-12 0)
(0.26059166 3.4884903e-12 0)
(0.26059166 4.3730503e-12 0)
(0.26059166 3.4272245e-12 0)
(0.26059166 3.431596e-12 0)
(0.26059166 2.7707601e-12 0)
(0.26059166 2.8924612e-12 0)
(0.26059166 2.797573e-12 0)
(0.26059166 3.7934313e-12 0)
(0.26059166 2.6047821e-12 0)
(0.26059166 3.5925889e-12 0)
(0.26059166 2.418343e-12 0)
(0.26059166 3.1473853e-12 0)
(0.26059166 2.4345378e-12 0)
(0.26059166 2.7090814e-12 0)
(0.26059166 2.0151895e-12 0)
(0.26059166 2.1326812e-12 0)
(0.26059166 2.0709014e-12 0)
(0.26059166 2.5336053e-12 0)
(0.26059166 2.6557665e-12 0)
(0.26059166 3.1358504e-12 0)
(0.26059166 2.7394869e-12 0)
(0.26059166 3.1848625e-12 0)
(0.26059166 2.6973681e-12 0)
(0.26059166 2.9845092e-12 0)
(0.26059166 2.66987e-12 0)
(0.26059166 2.9208846e-12 0)
(0.26059166 2.6146007e-12 0)
(0.26059166 2.8137221e-12 0)
(0.26059166 2.8633844e-12 0)
(0.26059166 3.3746435e-12 0)
(0.26059166 3.4970603e-12 0)
(0.26059166 3.4162978e-12 0)
(0.26059166 2.4165085e-12 0)
(0.26059166 1.2134003e-12 0)
(0.26059166 -2.9996702e-13 0)
(0.26059166 -1.3724488e-12 0)
(0.26059166 -2.0293902e-12 0)
(0.26059166 -2.3434214e-12 0)
(0.26059166 -2.3422006e-12 0)
(0.26059166 -2.3926448e-12 0)
(0.26059166 -2.3526973e-12 0)