/*--------------------------------*- C++ -*----------------------------------*\
| =========                 |                                                 |
| \\      /  F ield         | OpenFOAM: The Open Source CFD Toolbox           |
|  \\    /   O peration     | Version:  2206                                  |
|   \\  /    A nd           | Website:  www.openfoam.com                      |
|    \\/     M anipulation  |                                                 |
\*---------------------------------------------------------------------------*/
FoamFile
{
    version     2.0;
    format      ascii;
    arch        "LSB;label=32;scalar=64";
    class       surfaceScalarField;
    location    "8";
    object      phi;
}
// * * * * * * * * * * * * * * * * * * * * * * * * * * * * * * * * * * * * * //

dimensions      [0 3 -1 0 0 0 0];

oriented        oriented;

internalField   nonuniform List<scalar> 
29650
(
6.0867648e-05
0.00020579915
3.271817e-05
2.8149476e-05
2.4599021e-05
8.1191475e-06
2.0417849e-05
4.181174e-06
1.8552178e-05
1.8656734e-06
1.73737e-05
1.1784798e-06
1.6781661e-05
5.920388e-07
1.6412314e-05
3.6934412e-07
1.622082e-05
1.9149012e-07
1.6106686e-05
1.1413039e-07
1.6048258e-05
5.8424053e-08
1.6015474e-05
3.2781278e-08
1.5999542e-05
1.5930847e-08
1.5991376e-05
8.1652064e-09
1.5987889e-05
3.4872147e-09
1.598644e-05
1.4490688e-09
1.5986091e-05
3.5022504e-10
1.5986138e-05
-4.746746e-11
1.5986349e-05
-2.1079843e-10
1.5986569e-05
-2.1970997e-10
1.5986762e-05
-1.921924e-10
1.5986908e-05
-1.4612609e-10
1.5987014e-05
-1.0622916e-10
1.5987087e-05
-7.2914672e-11
1.5987136e-05
-4.8852188e-11
1.5987167e-05
-3.1638879e-11
1.5987187e-05
-2.0124074e-11
1.59872e-05
-1.2489704e-11
1.5987208e-05
-7.6285674e-12
1.5987212e-05
-4.5622058e-12
1.5987215e-05
-2.6825013e-12
1.5987216e-05
-1.5433589e-12
1.5987217e-05
-8.7050184e-13
1.5987218e-05
-4.7916392e-13
1.5987218e-05
-2.5675195e-13
1.5987218e-05
-1.3232953e-13
1.5987218e-05
-6.4521665e-14
1.5987218e-05
-2.8878578e-14
1.5987218e-05
-1.1269783e-14
1.5987218e-05
-3.1235222e-15
1.5987218e-05
2.3927539e-16
1.5987218e-05
1.2775426e-15
1.5987218e-05
1.3204835e-15
1.5987218e-05
1.2145567e-15
1.5987218e-05
1.2081584e-15
1.5987218e-05
1.184881e-15
1.5987218e-05
8.1129564e-16
1.5987218e-05
4.7035683e-16
1.5987218e-05
1.8539448e-16
1.5987218e-05
2.8824534e-16
1.5987218e-05
4.0437808e-16
1.5987218e-05
4.6589029e-16
1.5987218e-05
4.4447851e-16
1.5987218e-05
2.7537185e-16
1.5987218e-05
1.0659723e-16
1.5987218e-05
1.3790176e-17
1.5987218e-05
2.9540063e-17
1.5987218e-05
3.7275462e-16
1.5987218e-05
2.8593239e-16
1.5987218e-05
7.4816418e-16
1.5987218e-05
7.3089068e-16
1.5987218e-05
1.2049575e-15
1.5987218e-05
1.0661873e-15
1.5987218e-05
9.9299517e-16
1.5987218e-05
5.8284755e-16
1.5987218e-05
1.290044e-16
1.5987218e-05
-1.1924925e-16
1.5987218e-05
-4.1508459e-16
1.5987218e-05
-4.2681228e-16
1.5987218e-05
-4.6862263e-16
1.5987218e-05
-5.4812552e-16
1.5987218e-05
-3.9940328e-16
1.5987218e-05
-3.9315135e-16
1.5987218e-05
-8.8040844e-18
1.5987218e-05
1.0725613e-16
1.5987218e-05
4.3497333e-16
1.5987218e-05
4.0624608e-16
1.5987218e-05
4.9339631e-16
1.5987218e-05
4.5024356e-16
1.5987218e-05
5.1954105e-16
1.5987218e-05
5.3211983e-16
1.5987218e-05
5.470237e-16
1.5987218e-05
5.4856526e-16
1.5987218e-05
5.1278132e-16
1.5987218e-05
5.1747497e-16
1.5987218e-05
4.6611765e-16
1.5987218e-05
4.9254939e-16
1.5987218e-05
4.4486225e-16
1.5987218e-05
4.9390909e-16
1.5987218e-05
4.467478e-16
1.5987218e-05
5.0862778e-16
1.5987218e-05
4.4686063e-16
1.5987218e-05
5.2271953e-16
1.5987218e-05
4.4191445e-16
1.5987218e-05
5.2649951e-16
1.5987218e-05
4.1451851e-16
1.5987218e-05
4.8567071e-16
1.5987218e-05
3.4804693e-16
1.5987218e-05
4.8873565e-16
1.5987218e-05
4.3502022e-16
1.5987218e-05
6.0676524e-16
1.5987218e-05
3.8932e-16
1.5987218e-05
2.7567306e-16
1.5987218e-05
-1.5156289e-16
1.5987218e-05
-1.9325801e-16
1.5987218e-05
-3.0916244e-16
1.5987218e-05
3.2975489e-18
1.5987218e-05
4.2346272e-17
1.5987218e-05
2.4775011e-16
1.5987218e-05
2.4691635e-16
1.5987218e-05
3.2900822e-16
1.5987218e-05
2.6806908e-16
1.5987218e-05
3.247099e-16
1.5987218e-05
2.603361e-16
1.5987218e-05
4.1184165e-16
1.5987218e-05
3.0163779e-16
1.5987218e-05
3.7625683e-16
1.5987218e-05
2.1966822e-16
1.5987218e-05
2.9645088e-16
1.5987218e-05
2.0862871e-16
1.5987218e-05
3.1504657e-16
1.5987218e-05
2.6177696e-16
1.5987218e-05
3.1629621e-16
1.5987218e-05
2.5239219e-16
1.5987218e-05
2.7167746e-16
1.5987218e-05
2.4022797e-16
1.5987218e-05
2.6957536e-16
1.5987218e-05
2.7083112e-16
1.5987218e-05
2.9806685e-16
1.5987218e-05
3.0619022e-16
1.5987218e-05
3.2138216e-16
1.5987218e-05
3.3054406e-16
1.5987218e-05
3.3862143e-16
1.5987218e-05
3.4681144e-16
1.5987218e-05
3.4812527e-16
1.5987218e-05
3.547423e-16
1.5987218e-05
3.4880904e-16
1.5987218e-05
3.5301412e-16
1.5987218e-05
3.4081445e-16
1.5987218e-05
3.4456656e-16
1.5987218e-05
3.3196973e-16
1.5987218e-05
3.4146394e-16
1.5987218e-05
3.2816257e-16
1.5987218e-05
3.3561468e-16
1.5987218e-05
3.2237666e-16
1.5987218e-05
3.4185531e-16
1.5987218e-05
3.3773397e-16
1.5987218e-05
3.426735e-16
1.5987218e-05
2.965839e-16
1.5987218e-05
2.7854354e-16
1.5987218e-05
2.9170337e-16
1.5987218e-05
3.968007e-16
1.5987218e-05
4.4202719e-16
1.5987218e-05
3.6991327e-16
1.5987218e-05
5.4048959e-17
1.5987218e-05
-2.5350491e-16
1.5987218e-05
-4.4278563e-16
1.5987218e-05
-2.9360195e-16
1.5987218e-05
-3.3978188e-17
1.5987218e-05
2.3319717e-16
1.5987218e-05
3.0512281e-16
1.5987218e-05
3.2204174e-16
1.5987218e-05
2.4342364e-16
1.5987218e-05
2.8316718e-16
1.5987218e-05
2.895439e-16
1.5987218e-05
3.6031008e-16
1.5987218e-05
3.5859426e-16
1.5987218e-05
3.7634596e-16
1.5987218e-05
3.3695461e-16
1.5987218e-05
3.4039349e-16
1.5987218e-05
3.0054106e-16
1.5987218e-05
3.1538554e-16
1.5987218e-05
2.8104991e-16
1.5987218e-05
3.0641637e-16
1.5987218e-05
2.724413e-16
1.5987218e-05
3.0381716e-16
1.5987218e-05
2.624713e-16
1.5987218e-05
2.9672562e-16
1.5987218e-05
2.5505022e-16
1.5987218e-05
2.9524311e-16
1.5987218e-05
2.6201188e-16
1.5987218e-05
3.0256378e-16
1.5987218e-05
2.735884e-16
1.5987218e-05
3.255685e-16
1.5987218e-05
2.978537e-16
1.5987218e-05
3.4076586e-16
1.5987218e-05
3.0042434e-16
1.5987218e-05
3.5120449e-16
1.5987218e-05
3.3017709e-16
1.5987218e-05
3.8046038e-16
1.5987218e-05
3.3886679e-16
1.5987218e-05
3.8970016e-16
1.5987218e-05
4.2282837e-16
1.5987218e-05
5.4982066e-16
1.5987218e-05
5.344935e-16
1.5987218e-05
4.3090956e-16
1.5987218e-05
1.2863348e-16
1.5987218e-05
-8.4924035e-17
1.5987218e-05
-2.1534961e-16
1.5987218e-05
-2.0352033e-16
1.5987218e-05
-1.6582139e-16
1.5987218e-05
-2.0034932e-16
1.5987218e-05
-2.6087584e-16
1.5987218e-05
-3.2171772e-16
1.5987218e-05
-3.629997e-16
1.5987218e-05
-4.364813e-16
1.5987218e-05
-4.6912439e-16
1.5987218e-05
-4.4357186e-16
1.5987218e-05
-2.5484845e-16
1.5987218e-05
-2.3423334e-17
1.5987218e-05
2.216704e-16
1.5987218e-05
3.4194152e-16
1.5987218e-05
3.6254341e-16
1.5987218e-05
3.4506229e-16
1.5987218e-05
3.8660987e-16
1.5987218e-05
4.1676676e-16
1.5987218e-05
4.6489212e-16
1.5987218e-05
4.4074922e-16
1.5987218e-05
4.4736206e-16
1.5987218e-05
3.8679058e-16
1.5987218e-05
3.9590393e-16
1.5987218e-05
3.4032436e-16
1.5987218e-05
3.5764293e-16
1.5987218e-05
3.0269697e-16
1.5987218e-05
3.0547945e-16
1.5987218e-05
2.6737756e-16
1.5987218e-05
2.8540737e-16
1.5987218e-05
2.4359528e-16
1.5987218e-05
2.4661487e-16
1.5987218e-05
2.6637247e-16
1.5987218e-05
3.5639685e-16
1.5987218e-05
4.0290905e-16
1.5987218e-05
3.1762339e-16
1.5987218e-05
1.0228922e-16
1.5987218e-05
-1.2868103e-16
1.5987218e-05
-3.0629315e-16
1.5987218e-05
-3.9326577e-16
1.5987218e-05
-4.2902357e-16
1.5987218e-05
-4.8813293e-16
1.5987218e-05
-3.9956723e-16
1.5987218e-05
-1.9046234e-16
1.5987218e-05
1.1781189e-16
1.5987218e-05
2.2192136e-16
1.5987218e-05
1.79655e-16
1.5987218e-05
-6.9691034e-17
1.5987218e-05
-2.0539989e-16
1.5987218e-05
-3.8326598e-16
1.5987218e-05
-3.9538347e-16
1.5987218e-05
-3.9939991e-16
1.5987218e-05
-2.4308591e-16
1.5987218e-05
-1.8706722e-17
1.5987218e-05
2.9286515e-16
1.5987218e-05
4.0698067e-16
1.5987218e-05
2.9010052e-16
1.5987218e-05
-5.4729624e-17
1.5987218e-05
-2.6807425e-16
1.5987218e-05
-3.2582944e-16
1.5987218e-05
-1.10817e-16
1.5987218e-05
1.3993314e-16
1.5987218e-05
3.4501347e-16
1.5987218e-05
4.1068539e-16
1.5987218e-05
3.8356761e-16
1.5987218e-05
3.2036473e-16
1.5987218e-05
3.5372814e-16
1.5987218e-05
4.2108401e-16
1.5987218e-05
4.7796032e-16
1.5987218e-05
5.0047164e-16
1.5987218e-05
4.5751797e-16
1.5987218e-05
4.5475017e-16
1.5987218e-05
4.5927998e-16
1.5987218e-05
5.511106e-16
1.5987218e-05
5.1910249e-16
1.5987218e-05
4.1347297e-16
1.5987218e-05
1.0543503e-16
1.5987218e-05
-1.1995559e-16
1.5987218e-05
-3.2672652e-16
1.5987218e-05
-3.0863827e-16
1.5987218e-05
-3.261958e-16
1.5987218e-05
-3.1811318e-16
1.5987218e-05
-3.9171531e-16
1.5987218e-05
-3.9877179e-16
1.5987218e-05
-4.32804e-16
1.5987218e-05
-4.6054796e-16
1.5987218e-05
-5.3110713e-16
1.5987218e-05
-5.198786e-16
1.5987218e-05
-3.9704624e-16
1.5987218e-05
-1.3103766e-16
1.5987218e-05
9.9910505e-17
1.5987218e-05
2.4926433e-16
1.5987218e-05
2.65208e-16
1.5987218e-05
2.4203565e-16
1.5987218e-05
2.7439431e-16
1.5987218e-05
3.3683866e-16
1.5987218e-05
3.4106115e-16
1.5987218e-05
3.2221645e-16
1.5987218e-05
3.7682117e-16
1.5987218e-05
5.3611524e-16
1.5987218e-05
4.8535748e-16
1.5987218e-05
6.208547e-17
-2.1775722e-16
0.00014027132
0.00033219463
9.2549243e-05
7.5871548e-05
7.0338072e-05
3.033032e-05
5.9620314e-05
1.4898939e-05
5.4019642e-05
7.4663533e-06
5.0795344e-05
4.4027865e-06
4.901105e-05
2.3763375e-06
4.7964745e-05
1.4156502e-06
4.7384384e-05
7.7184819e-07
4.7052234e-05
4.4627654e-07
4.6872682e-05
2.3797038e-07
4.677453e-05
1.3092857e-07
4.6724187e-05
6.6271649e-08
4.6698685e-05
3.3665251e-08
4.6686924e-05
1.5247235e-08
4.6681893e-05
6.4811184e-09
4.6680252e-05
1.9914027e-09
4.6680058e-05
1.468313e-10
4.6680445e-05
-5.9711252e-10
4.6680961e-05
-7.3594284e-10
4.6681443e-05
-6.7337982e-10
4.6681826e-05
-5.2932036e-10
4.668211e-05
-3.9023336e-10
4.6682309e-05
-2.7192723e-10
4.6682444e-05
-1.836325e-10
4.6682532e-05
-1.2006675e-10
4.6682589e-05
-7.6830794e-11
4.6682624e-05
-4.8036222e-11
4.6682646e-05
-2.9501112e-11
4.6682659e-05
-1.7761789e-11
4.6682667e-05
-1.0507473e-11
4.6682672e-05
-6.0907993e-12
4.6682674e-05
-3.4612457e-12
4.6682676e-05
-1.9222123e-12
4.6682676e-05
-1.0407948e-12
4.6682677e-05
-5.4438201e-13
4.6682677e-05
-2.718255e-13
4.6682677e-05
-1.2630898e-13
4.6682677e-05
-5.2871232e-14
4.6682677e-05
-1.7723009e-14
4.6682677e-05
-2.7122247e-15
4.6682677e-05
2.9965459e-15
4.6682677e-05
4.1940014e-15
4.6682677e-05
4.5579814e-15
4.6682677e-05
4.4352109e-15
4.6682677e-05
3.9227336e-15
4.6682677e-05
2.1702932e-15
4.6682677e-05
8.8659822e-16
4.6682677e-05
-5.6385206e-16
4.6682677e-05
-1.4269214e-16
4.6682677e-05
-1.3079274e-16
4.6682677e-05
5.0979108e-16
4.6682677e-05
4.2464281e-16
4.6682677e-05
3.939939e-16
4.6682677e-05
-5.4058745e-18
4.6682677e-05
-6.7435546e-17
4.6682677e-05
-1.0158851e-16
4.6682677e-05
9.5790148e-16
4.6682677e-05
4.8299509e-16
4.6682677e-05
1.7117735e-15
4.6682677e-05
1.3284415e-15
4.6682677e-05
2.5658609e-15
4.6682677e-05
2.1014498e-15
4.6682677e-05
2.1332972e-15
4.6682677e-05
9.9948997e-16
4.6682677e-05
1.7683103e-16
4.6682677e-05
-3.9978888e-16
4.6682677e-05
-7.8698589e-16
4.6682677e-05
-8.0815126e-16
4.6682677e-05
-5.8735771e-16
4.6682677e-05
-1.1145219e-15
4.6682677e-05
-4.7102813e-16
4.6682677e-05
-7.0250461e-16
4.6682677e-05
4.367558e-16
4.6682677e-05
4.6464892e-16
4.6682677e-05
1.3181098e-15
4.6682677e-05
7.6584699e-16
4.6682677e-05
1.074562e-15
4.6682677e-05
5.2510165e-16
4.6682677e-05
9.4556253e-16
4.6682677e-05
6.2826181e-16
4.6682677e-05
1.0130293e-15
4.6682677e-05
6.9412554e-16
4.6682677e-05
9.6960806e-16
4.6682677e-05
6.4781455e-16
4.6682677e-05
8.6846179e-16
4.6682677e-05
5.9956338e-16
4.6682677e-05
8.1482795e-16
4.6682677e-05
6.1890181e-16
4.6682677e-05
8.2039311e-16
4.6682677e-05
6.6899762e-16
4.6682677e-05
8.2171005e-16
4.6682677e-05
7.1665071e-16
4.6682677e-05
8.1457367e-16
4.6682677e-05
7.3810342e-16
4.6682677e-05
7.6250899e-16
4.6682677e-05
6.4902113e-16
4.6682677e-05
5.9180231e-16
4.6682677e-05
6.6109531e-16
4.6682677e-05
8.4874854e-16
4.6682677e-05
1.0212895e-15
4.6682677e-05
7.4217557e-16
4.6682677e-05
9.6256727e-17
4.6682677e-05
-7.3562664e-16
4.6682677e-05
-1.0156935e-15
4.6682677e-05
-9.0855269e-16
4.6682677e-05
-4.2785729e-17
4.6682677e-05
3.6737238e-16
4.6682677e-05
7.1278001e-16
4.6682677e-05
6.8463986e-16
4.6682677e-05
5.7447744e-16
4.6682677e-05
4.4778462e-16
4.6682677e-05
4.7224432e-16
4.6682677e-05
4.9358434e-16
4.6682677e-05
6.2558441e-16
4.6682677e-05
5.7567715e-16
4.6682677e-05
5.5818973e-16
4.6682677e-05
3.4631027e-16
4.6682677e-05
3.712681e-16
4.6682677e-05
2.9786374e-16
4.6682677e-05
4.4537334e-16
4.6682677e-05
4.5824632e-16
4.6682677e-05
5.1420965e-16
4.6682677e-05
4.5470848e-16
4.6682677e-05
4.1880824e-16
4.6682677e-05
3.918886e-16
4.6682677e-05
3.9171792e-16
4.6682677e-05
4.3216347e-16
4.6682677e-05
4.4956667e-16
4.6682677e-05
5.0109865e-16
4.6682677e-05
5.0230368e-16
4.6682677e-05
5.5061349e-16
4.6682677e-05
5.4175419e-16
4.6682677e-05
5.838274e-16
4.6682677e-05
5.6314735e-16
4.6682677e-05
5.991854e-16
4.6682677e-05
5.6441437e-16
4.6682677e-05
5.9220208e-16
4.6682677e-05
5.439641e-16
4.6682677e-05
5.6740327e-16
4.6682677e-05
5.2142537e-16
4.6682677e-05
5.5818198e-16
4.6682677e-05
5.1133774e-16
4.6682677e-05
5.3946043e-16
4.6682677e-05
4.9598145e-16
4.6682677e-05
5.590671e-16
4.6682677e-05
5.426557e-16
4.6682677e-05
5.615075e-16
4.6682677e-05
4.3150114e-16
4.6682677e-05
3.8407831e-16
4.6682677e-05
4.4051434e-16
4.6682677e-05
7.214499e-16
4.6682677e-05
8.0591322e-16
4.6682677e-05
6.2223405e-16
4.6682677e-05
-2.6767406e-16
4.6682677e-05
-9.8397068e-16
4.6682677e-05
-1.2431003e-15
4.6682677e-05
-6.7811315e-16
4.6682677e-05
2.5461351e-16
4.6682677e-05
9.3559102e-16
4.6682677e-05
1.0257797e-15
4.6682677e-05
8.5351575e-16
4.6682677e-05
4.3967103e-16
4.6682677e-05
3.8116389e-16
4.6682677e-05
3.4438032e-16
4.6682677e-05
5.2409832e-16
4.6682677e-05
5.4759485e-16
4.6682677e-05
6.1701738e-16
4.6682677e-05
5.3921458e-16
4.6682677e-05
5.5466171e-16
4.6682677e-05
4.6161979e-16
4.6682677e-05
4.9418696e-16
4.6682677e-05
4.1621312e-16
4.6682677e-05
4.6979628e-16
4.6682677e-05
3.9923949e-16
4.6682677e-05
4.6559597e-16
4.6682677e-05
3.8244663e-16
4.6682677e-05
4.5161452e-16
4.6682677e-05
3.719154e-16
4.6682677e-05
4.4906834e-16
4.6682677e-05
3.8084419e-16
4.6682677e-05
4.5949298e-16
4.6682677e-05
3.9953716e-16
4.6682677e-05
5.1556708e-16
4.6682677e-05
4.5390091e-16
4.6682677e-05
5.3891845e-16
4.6682677e-05
4.4645037e-16
4.6682677e-05
5.5574123e-16
4.6682677e-05
5.3053397e-16
4.6682677e-05
6.3679689e-16
4.6682677e-05
5.4485133e-16
4.6682677e-05
6.4951015e-16
4.6682677e-05
7.596913e-16
4.6682677e-05
1.0446728e-15
4.6682677e-05
9.6424142e-16
4.6682677e-05
6.4966034e-16
4.6682677e-05
-1.4525231e-16
4.6682677e-05
-6.5299493e-16
4.6682677e-05
-7.8343611e-16
4.6682677e-05
-5.6178393e-16
4.6682677e-05
-2.4731458e-16
4.6682677e-05
-2.1480067e-16
4.6682677e-05
-2.904748e-16
4.6682677e-05
-4.2846871e-16
4.6682677e-05
-5.8510325e-16
4.6682677e-05
-7.8826528e-16
4.6682677e-05
-9.035134e-16
4.6682677e-05
-7.857044e-16
4.6682677e-05
-2.9784061e-16
4.6682677e-05
3.2259167e-16
4.6682677e-05
8.4122609e-16
4.6682677e-05
9.8522345e-16
4.6682677e-05
8.1341837e-16
4.6682677e-05
5.9058922e-16
4.6682677e-05
5.9618919e-16
4.6682677e-05
6.058123e-16
4.6682677e-05
7.467938e-16
4.6682677e-05
6.9307398e-16
4.6682677e-05
7.3664662e-16
4.6682677e-05
6.0449328e-16
4.6682677e-05
6.3414746e-16
4.6682677e-05
5.1436247e-16
4.6682677e-05
5.6763385e-16
4.6682677e-05
4.7465924e-16
4.6682677e-05
4.8476832e-16
4.6682677e-05
4.3403362e-16
4.6682677e-05
4.3004549e-16
4.6682677e-05
3.5754279e-16
4.6682677e-05
3.2695741e-16
4.6682677e-05
4.1157427e-16
4.6682677e-05
6.2454935e-16
4.6682677e-05
7.5656476e-16
4.6682677e-05
4.4284335e-16
4.6682677e-05
-7.6392235e-17
4.6682677e-05
-6.810204e-16
4.6682677e-05
-9.7865712e-16
4.6682677e-05
-9.7395453e-16
4.6682677e-05
-8.9911133e-16
4.6682677e-05
-8.2363375e-16
4.6682677e-05
-5.7413562e-16
4.6682677e-05
9.6966731e-17
4.6682677e-05
7.4483714e-16
4.6682677e-05
8.2629944e-16
4.6682677e-05
4.4847269e-16
4.6682677e-05
-4.020064e-16
4.6682677e-05
-8.2388197e-16
4.6682677e-05
-1.1687633e-15
4.6682677e-05
-1.0808652e-15
4.6682677e-05
-8.1000595e-16
4.6682677e-05
-3.0877367e-16
4.6682677e-05
4.0917854e-16
4.6682677e-05
1.098026e-15
4.6682677e-05
1.1825243e-15
4.6682677e-05
6.0272861e-16
4.6682677e-05
-4.7523416e-16
4.6682677e-05
-1.1062812e-15
4.6682677e-05
-1.0450734e-15
4.6682677e-05
-3.0380778e-16
4.6682677e-05
5.5134404e-16
4.6682677e-05
1.125472e-15
4.6682677e-05
1.1925211e-15
4.6682677e-05
9.2244762e-16
4.6682677e-05
5.7289898e-16
4.6682677e-05
4.8123221e-16
4.6682677e-05
6.1591724e-16
4.6682677e-05
7.1987743e-16
4.6682677e-05
8.1200974e-16
4.6682677e-05
7.0838392e-16
4.6682677e-05
7.224124e-16
4.6682677e-05
7.647557e-16
4.6682677e-05
9.8569935e-16
4.6682677e-05
9.0452411e-16
4.6682677e-05
5.7174563e-16
4.6682677e-05
-1.3477102e-16
4.6682677e-05
-6.7372105e-16
4.6682677e-05
-9.5729943e-16
4.6682677e-05
-7.370461e-16
4.6682677e-05
-5.7320159e-16
4.6682677e-05
-4.5143234e-16
4.6682677e-05
-5.6361026e-16
4.6682677e-05
-5.8215546e-16
4.6682677e-05
-6.8091174e-16
4.6682677e-05
-7.9868914e-16
4.6682677e-05
-9.7359938e-16
4.6682677e-05
-9.1065015e-16
4.6682677e-05
-5.935343e-16
4.6682677e-05
1.3048449e-16
4.6682677e-05
6.4226867e-16
4.6682677e-05
8.476482e-16
4.6682677e-05
6.9524029e-16
4.6682677e-05
4.2261019e-16
4.6682677e-05
4.1442203e-16
4.6682677e-05
4.8860557e-16
4.6682677e-05
4.9979615e-16
4.6682677e-05
4.3197036e-16
4.6682677e-05
6.3065958e-16
4.6682677e-05
1.0802168e-15
4.6682677e-05
9.2799584e-16
4.6682677e-05
-3.9989083e-16
-9.251724e-16
0.00019469214
0.00040416928
0.00014360962
0.00012695408
0.00011230147
6.1638464e-05
9.6619294e-05
3.0581119e-05
8.7762221e-05
1.6323427e-05
8.2755406e-05
9.4096016e-06
7.9871701e-05
5.2600429e-06
7.8206033e-05
3.0813185e-06
7.7256668e-05
1.7212145e-06
7.6718195e-05
9.8475085e-07
7.6420462e-05
5.3570309e-07
7.6258218e-05
2.9317339e-07
7.6172993e-05
1.5149696e-07
7.61296e-05
7.7058389e-08
7.6108851e-05
3.5995977e-08
7.6099695e-05
1.5636677e-08
7.6096324e-05
5.362244e-09
7.6095587e-05
8.8362516e-10
7.6095937e-05
-9.4632777e-10
7.6096611e-05
-1.4105439e-09
7.609729e-05
-1.3527026e-09
7.6097854e-05
-1.0927929e-09
7.609828e-05
-8.1637256e-10
7.6098584e-05
-5.7543171e-10
7.6098791e-05
-3.9127098e-10
7.6098929e-05
-2.5761368e-10
7.6099018e-05
-1.6567211e-10
7.6099074e-05
-1.0413449e-10
7.6099108e-05
-6.4231505e-11
7.609913e-05
-3.8857376e-11
7.6099142e-05
-2.3089831e-11
7.609915e-05
-1.3456548e-11
7.6099154e-05
-7.6901378e-12
7.6099156e-05
-4.298724e-12
7.6099157e-05
-2.3440947e-12
7.6099158e-05
-1.2387463e-12
7.6099158e-05
-6.2809914e-13
7.6099159e-05
-3.0022769e-13
7.6099159e-05
-1.313149e-13
7.6099159e-05
-4.856605e-14
7.6099159e-05
-1.1119513e-14
7.6099159e-05
3.9751487e-15
7.6099159e-05
8.5272708e-15
7.6099159e-05
9.2482345e-15
7.6099159e-05
8.3540605e-15
7.6099159e-05
6.8374654e-15
7.6099159e-05
4.2372348e-15
7.6099159e-05
2.2647899e-15
7.6099159e-05
5.4359188e-16
7.6099159e-05
4.9077085e-16
7.6099159e-05
3.7309193e-16
7.6099159e-05
7.3625214e-16
7.6099159e-05
6.0119428e-16
7.6099159e-05
4.5580964e-16
7.6099159e-05
3.6368217e-17
7.6099159e-05
7.9553992e-18
7.6099159e-05
2.8347957e-17
7.6099159e-05
9.9651424e-16
7.6099159e-05
7.6736775e-16
7.6099159e-05
1.8923158e-15
7.6099159e-05
1.7458668e-15
7.6099159e-05
2.9355055e-15
7.6099159e-05
2.6404058e-15
7.6099159e-05
2.5961796e-15
7.6099159e-05
1.5899593e-15
7.6099159e-05
6.6185772e-16
7.6099159e-05
1.1129239e-16
7.6099159e-05
-4.0584421e-16
7.6099159e-05
-4.240523e-16
7.6099159e-05
-4.4444865e-16
7.6099159e-05
-7.1956599e-16
7.6099159e-05
-3.3255365e-16
7.6099159e-05
-3.687894e-16
7.6099159e-05
5.4728465e-16
7.6099159e-05
6.8578311e-16
7.6099159e-05
1.2750923e-15
7.6099159e-05
8.820062e-16
7.6099159e-05
9.2974135e-16
7.6099159e-05
5.8953141e-16
7.6099159e-05
7.5996659e-16
7.6099159e-05
6.6594517e-16
7.6099159e-05
8.0836834e-16
7.6099159e-05
7.266978e-16
7.6099159e-05
7.6463022e-16
7.6099159e-05
6.8107163e-16
7.6099159e-05
6.718681e-16
7.6099159e-05
6.3189787e-16
7.6099159e-05
6.2877584e-16
7.6099159e-05
6.4857875e-16
7.6099159e-05
6.4430717e-16
7.6099159e-05
6.9526551e-16
7.6099159e-05
6.5444487e-16
7.6099159e-05
7.3779528e-16
7.6099159e-05
6.4894178e-16
7.6099159e-05
7.459903e-16
7.6099159e-05
5.8247765e-16
7.6099159e-05
6.3765228e-16
7.6099159e-05
4.184696e-16
7.6099159e-05
6.4537852e-16
7.6099159e-05
6.3004184e-16
7.6099159e-05
8.9550699e-16
7.6099159e-05
4.138132e-16
7.6099159e-05
-6.5711715e-17
7.6099159e-05
-9.9861203e-16
7.6099159e-05
-1.0860778e-15
7.6099159e-05
-1.0208417e-15
7.6099159e-05
-3.6682354e-17
7.6099159e-05
3.6918751e-16
7.6099159e-05
8.4502675e-16
7.6099159e-05
7.9138051e-16
7.6099159e-05
7.2712642e-16
7.6099159e-05
4.7129024e-16
7.6099159e-05
4.376188e-16
7.6099159e-05
2.9849555e-16
7.6099159e-05
4.9315091e-16
7.6099159e-05
3.2566954e-16
7.6099159e-05
3.9625708e-16
7.6099159e-05
1.179274e-16
7.6099159e-05
2.0919558e-16
7.6099159e-05
8.1197528e-17
7.6099159e-05
2.7270238e-16
7.6099159e-05
2.3994724e-16
7.6099159e-05
3.3219796e-16
7.6099159e-05
2.4438349e-16
7.6099159e-05
2.3887894e-16
7.6099159e-05
1.9322591e-16
7.6099159e-05
2.1178861e-16
7.6099159e-05
2.3958001e-16
7.6099159e-05
2.6981083e-16
7.6099159e-05
3.1596405e-16
7.6099159e-05
3.2879598e-16
7.6099159e-05
3.7675415e-16
7.6099159e-05
3.7634721e-16
7.6099159e-05
4.1910813e-16
7.6099159e-05
4.0234941e-16
7.6099159e-05
4.3810586e-16
7.6099159e-05
4.0378855e-16
7.6099159e-05
4.3103237e-16
7.6099159e-05
3.8121276e-16
7.6099159e-05
4.0579243e-16
7.6099159e-05
3.57193e-16
7.6099159e-05
3.9594321e-16
7.6099159e-05
3.4758781e-16
7.6099159e-05
3.8257824e-16
7.6099159e-05
3.3956128e-16
7.6099159e-05
4.0781867e-16
7.6099159e-05
3.8425806e-16
7.6099159e-05
4.0671622e-16
7.6099159e-05
2.7921795e-16
7.6099159e-05
2.6015786e-16
7.6099159e-05
3.0797551e-16
7.6099159e-05
5.7572852e-16
7.6099159e-05
6.1589374e-16
7.6099159e-05
3.9692243e-16
7.6099159e-05
-4.1475917e-16
7.6099159e-05
-1.0483247e-15
7.6099159e-05
-1.2284199e-15
7.6099159e-05
-5.908087e-16
7.6099159e-05
2.4369925e-16
7.6099159e-05
9.043297e-16
7.6099159e-05
9.3565188e-16
7.6099159e-05
7.5568451e-16
7.6099159e-05
3.3534533e-16
7.6099159e-05
2.8126432e-16
7.6099159e-05
2.1648234e-16
7.6099159e-05
3.9085492e-16
7.6099159e-05
3.9652315e-16
7.6099159e-05
4.7464512e-16
7.6099159e-05
3.8788961e-16
7.6099159e-05
4.1446477e-16
7.6099159e-05
3.1119196e-16
7.6099159e-05
3.5537914e-16
7.6099159e-05
2.6519972e-16
7.6099159e-05
3.3276462e-16
7.6099159e-05
2.4802581e-16
7.6099159e-05
3.2978159e-16
7.6099159e-05
2.2943981e-16
7.6099159e-05
3.1622772e-16
7.6099159e-05
2.1498985e-16
7.6099159e-05
3.1154682e-16
7.6099159e-05
2.2643006e-16
7.6099159e-05
3.2589571e-16
7.6099159e-05
2.5710336e-16
7.6099159e-05
3.8823818e-16
7.6099159e-05
3.1795257e-16
7.6099159e-05
4.2338929e-16
7.6099159e-05
3.2786133e-16
7.6099159e-05
4.6110062e-16
7.6099159e-05
4.2095405e-16
7.6099159e-05
5.4380728e-16
7.6099159e-05
4.4238887e-16
7.6099159e-05
5.6883587e-16
7.6099159e-05
6.489066e-16
7.6099159e-05
9.179257e-16
7.6099159e-05
8.0114299e-16
7.6099159e-05
4.8863605e-16
7.6099159e-05
-2.3063976e-16
7.6099159e-05
-6.597077e-16
7.6099159e-05
-7.3061391e-16
7.6099159e-05
-4.4767914e-16
7.6099159e-05
-1.1875242e-16
7.6099159e-05
-5.8524554e-17
7.6099159e-05
-1.1766398e-16
7.6099159e-05
-2.6217353e-16
7.6099159e-05
-4.027774e-16
7.6099159e-05
-6.1576338e-16
7.6099159e-05
-6.9861533e-16
7.6099159e-05
-5.9279634e-16
7.6099159e-05
-1.142167e-16
7.6099159e-05
4.290738e-16
7.6099159e-05
8.9847601e-16
7.6099159e-05
9.5766276e-16
7.6099159e-05
7.6642921e-16
7.6099159e-05
5.1653892e-16
7.6099159e-05
5.036435e-16
7.6099159e-05
5.0506714e-16
7.6099159e-05
6.317891e-16
7.6099159e-05
5.7722534e-16
7.6099159e-05
6.2539749e-16
7.6099159e-05
4.8796117e-16
7.6099159e-05
5.2111326e-16
7.6099159e-05
3.8766361e-16
7.6099159e-05
4.3056797e-16
7.6099159e-05
3.0812275e-16
7.6099159e-05
3.1676229e-16
7.6099159e-05
2.333206e-16
7.6099159e-05
2.5213092e-16
7.6099159e-05
1.6123675e-16
7.6099159e-05
1.5997501e-16
7.6099159e-05
2.3735908e-16
7.6099159e-05
4.3960429e-16
7.6099159e-05
5.3013252e-16
7.6099159e-05
2.440206e-16
7.6099159e-05
-2.596296e-16
7.6099159e-05
-7.6971118e-16
7.6099159e-05
-9.9664868e-16
7.6099159e-05
-9.5113634e-16
7.6099159e-05
-8.0842784e-16
7.6099159e-05
-7.1844721e-16
7.6099159e-05
-3.9477722e-16
7.6099159e-05
1.6855266e-16
7.6099159e-05
7.8095608e-16
7.6099159e-05
7.4605364e-16
7.6099159e-05
3.3554424e-16
7.6099159e-05
-4.824739e-16
7.6099159e-05
-8.6902576e-16
7.6099159e-05
-1.1677954e-15
7.6099159e-05
-9.866842e-16
7.6099159e-05
-6.9244874e-16
7.6099159e-05
-1.1612837e-16
7.6099159e-05
5.5297469e-16
7.6099159e-05
1.201975e-15
7.6099159e-05
1.1800463e-15
7.6099159e-05
5.6657718e-16
7.6099159e-05
-4.7542048e-16
7.6099159e-05
-1.02178e-15
7.6099159e-05
-9.3910681e-16
7.6099159e-05
-1.7861197e-16
7.6099159e-05
6.2834314e-16
7.6099159e-05
1.1471618e-15
7.6099159e-05
1.1801668e-15
7.6099159e-05
8.7421545e-16
7.6099159e-05
5.1099528e-16
7.6099159e-05
4.0920355e-16
7.6099159e-05
5.0680611e-16
7.6099159e-05
6.061298e-16
7.6099159e-05
6.841706e-16
7.6099159e-05
5.9038357e-16
7.6099159e-05
6.1703599e-16
7.6099159e-05
6.4830826e-16
7.6099159e-05
8.5103492e-16
7.6099159e-05
7.3308403e-16
7.6099159e-05
4.2274936e-16
7.6099159e-05
-2.7211857e-16
7.6099159e-05
-7.2517736e-16
7.6099159e-05
-9.7013566e-16
7.6099159e-05
-6.8881882e-16
7.6099159e-05
-5.1534804e-16
7.6099159e-05
-3.6396824e-16
7.6099159e-05
-4.6650844e-16
7.6099159e-05
-4.7138496e-16
7.6099159e-05
-5.7813187e-16
7.6099159e-05
-6.7707232e-16
7.6099159e-05
-8.4178485e-16
7.6099159e-05
-7.5781423e-16
7.6099159e-05
-4.2728413e-16
7.6099159e-05
2.212921e-16
7.6099159e-05
6.8162369e-16
7.6099159e-05
8.1639132e-16
7.6099159e-05
6.1662627e-16
7.6099159e-05
3.4458423e-16
7.6099159e-05
3.0311286e-16
7.6099159e-05
3.6548349e-16
7.6099159e-05
3.6479208e-16
7.6099159e-05
3.2834904e-16
7.6099159e-05
5.2375791e-16
7.6099159e-05
9.0892655e-16
7.6099159e-05
6.9964615e-16
7.6099159e-05
-4.4747937e-16
-8.8780053e-16
0.00023312986
0.00043770622
0.00018548527
0.00017459868
0.00015018421
9.6939525e-05
0.0001310242
4.9741134e-05
0.00011965162
2.7696008e-05
0.0001131446
1.5916626e-05
0.00010931814
9.0865076e-06
0.00010710183
5.2976351e-06
0.00010582149
3.0015585e-06
0.00010509347
1.7127857e-06
0.00010468612
9.4305356e-07
0.00010446306
5.1623444e-07
0.00010434425
2.7031226e-07
0.00010428311
1.3819356e-07
0.00010425319
6.5914677e-08
0.00010423959
2.9235098e-08
0.0001042342
1.0752948e-08
0.00010423268
2.4048973e-09
0.00010423281
-1.0809577e-09
0.00010423352
-2.1166855e-09
0.00010423431
-2.1446223e-09
0.000104235
-1.7797827e-09
0.00010423553
-1.3483189e-09
0.00010423592
-9.6052241e-10
0.00010423618
-6.5771884e-10
0.00010423636
-4.3578246e-10
0.00010423648
-2.8161541e-10
0.00010423655
-1.778509e-10
0.0001042366
-1.1014617e-10
0.00010423662
-6.6913978e-11
0.00010423664
-3.9924039e-11
0.00010423665
-2.3372806e-11
0.00010423666
-1.3420398e-11
0.00010423666
-7.5417792e-12
0.00010423666
-4.137523e-12
0.00010423666
-2.2041125e-12
0.00010423666
-1.1310094e-12
0.00010423666
-5.5049106e-13
0.00010423666
-2.4780036e-13
0.00010423666
-9.6962453e-14
0.00010423666
-2.7094505e-14
0.00010423666
2.5259629e-15
0.00010423666
1.2653827e-14
0.00010423666
1.5002065e-14
0.00010423666
1.3285086e-14
0.00010423666
1.0094243e-14
0.00010423666
5.810338e-15
0.00010423666
3.200289e-15
0.00010423666
5.2761051e-16
0.00010423666
2.8315874e-16
0.00010423666
-5.1187957e-16
0.00010423666
-9.0222334e-17
0.00010423666
-5.5263346e-16
0.00010423666
-6.5483938e-16
0.00010423666
-1.1760547e-15
0.00010423666
-9.8779576e-16
0.00010423666
-8.3547091e-16
0.00010423666
5.5062485e-16
0.00010423666
1.0083397e-16
0.00010423666
1.8353711e-15
0.00010423666
1.4299509e-15
0.00010423666
3.0966128e-15
0.00010423666
2.642768e-15
0.00010423666
3.0095734e-15
0.00010423666
1.9811928e-15
0.00010423666
1.2669093e-15
0.00010423666
8.2716941e-16
0.00010423666
3.6542344e-16
0.00010423666
3.9667231e-16
0.00010423666
6.3954825e-16
0.00010423666
1.602422e-16
0.00010423666
9.876131e-16
0.00010423666
6.7505714e-16
0.00010423666
1.7129904e-15
0.00010423666
1.2616065e-15
0.00010423666
1.6525891e-15
0.00010423666
5.2822117e-16
0.00010423666
5.563567e-16
0.00010423666
-3.1651286e-16
0.00010423666
-5.5517963e-19
0.00010423666
-4.4643414e-16
0.00010423666
-4.4980298e-17
0.00010423666
-3.7777439e-16
0.00010423666
-5.0137875e-17
0.00010423666
-3.6462614e-16
0.00010423666
-1.1068869e-16
0.00010423666
-3.7685694e-16
0.00010423666
-1.4465848e-16
0.00010423666
-3.3379245e-16
0.00010423666
-1.2999206e-16
0.00010423666
-2.6869593e-16
0.00010423666
-1.2233969e-16
0.00010423666
-2.0797382e-16
0.00010423666
-1.3682011e-16
0.00010423666
-2.0142615e-16
0.00010423666
-2.3426232e-16
0.00010423666
-3.1151682e-16
0.00010423666
-3.8349143e-16
0.00010423666
-2.6935421e-16
0.00010423666
-2.3678256e-16
0.00010423666
-2.1321816e-16
0.00010423666
-7.0996464e-16
0.00010423666
-1.258853e-15
0.00010423666
-1.9514056e-15
0.00010423666
-1.7707846e-15
0.00010423666
-1.3606223e-15
0.00010423666
-7.5499026e-17
0.00010423666
6.0239901e-16
0.00010423666
1.1293756e-15
0.00010423666
9.5326603e-16
0.00010423666
5.4342391e-16
0.00010423666
-2.1208949e-17
0.00010423666
-3.8022353e-16
0.00010423666
-6.5304967e-16
0.00010423666
-6.2213864e-16
0.00010423666
-7.1562188e-16
0.00010423666
-6.7091541e-16
0.00010423666
-8.9198454e-16
0.00010423666
-8.3207944e-16
0.00010423666
-9.6248943e-16
0.00010423666
-8.2385489e-16
0.00010423666
-8.2955339e-16
0.00010423666
-7.3888156e-16
0.00010423666
-7.6465534e-16
0.00010423666
-7.8083569e-16
0.00010423666
-7.9754142e-16
0.00010423666
-8.1533285e-16
0.00010423666
-7.7455651e-16
0.00010423666
-7.773805e-16
0.00010423666
-7.0825709e-16
0.00010423666
-7.1666283e-16
0.00010423666
-6.4121051e-16
0.00010423666