/*--------------------------------*- C++ -*----------------------------------*\
| =========                 |                                                 |
| \\      /  F ield         | OpenFOAM: The Open Source CFD Toolbox           |
|  \\    /   O peration     | Version:  2206                                  |
|   \\  /    A nd           | Website:  www.openfoam.com                      |
|    \\/     M anipulation  |                                                 |
\*---------------------------------------------------------------------------*/
FoamFile
{
    version     2.0;
    format      ascii;
    arch        "LSB;label=32;scalar=64";
    class       volVectorField;
    location    "8";
    object      U;
}
// * * * * * * * * * * * * * * * * * * * * * * * * * * * * * * * * * * * * * //

dimensions      [0 1 -1 0 0 0 0];

internalField   nonuniform List<vector> 
15000
(
(0.15962853 0.053997677 0)
(0.11557193 0.0064916385 0)
(0.064251361 0.0014144182 0)
(0.055918599 0.0007495993 0)
(0.047595817 0.00028826808 0)
(0.044708798 0.00019884331 0)
(0.042412494 9.0522352e-05 0)
(0.041406637 6.0128391e-05 0)
(0.040707476 2.8979904e-05 0)
(0.04037699 1.8020091e-05 0)
(0.040167798 8.6622746e-06 0)
(0.04006866 4.9956928e-06 0)
(0.040011054 2.2674977e-06 0)
(0.039985308 1.1737729e-06 0)
(0.039971973 4.4674861e-07 0)
(0.039967049 1.7402178e-07 0)
(0.03996518 1.4244984e-08 0)
(0.039965127 -3.0060036e-08 0)
(0.039965544 -4.8565692e-08 0)
(0.039966152 -4.3169003e-08 0)
(0.03996668 -3.5701349e-08 0)
(0.039967111 -2.6020938e-08 0)
(0.039967422 -1.854217e-08 0)
(0.039967642 -1.24664e-08 0)
(0.03996779 -8.2537115e-09 0)
(0.039967887 -5.2711013e-09 0)
(0.039967949 -3.3201609e-09 0)
(0.039967988 -2.0369217e-09 0)
(0.039968012 -1.2327456e-09 0)
(0.039968026 -7.2901328e-10 0)
(0.039968035 -4.2396666e-10 0)
(0.03996804 -2.404988e-10 0)
(0.039968042 -1.3369423e-10 0)
(0.039968044 -7.2359141e-11 0)
(0.039968045 -3.8028667e-11 0)
(0.039968045 -1.8970408e-11 0)
(0.039968045 -8.7231571e-12 0)
(0.039968046 -3.46396e-12 0)
(0.039968046 -1.0580011e-12 0)
(0.039968046 -2.5006796e-14 0)
(0.039968046 3.1139178e-13 0)
(0.039968046 3.5466091e-13 0)
(0.039968046 2.2542851e-13 0)
(0.039968046 1.2369772e-13 0)
(0.039968046 1.9626875e-13 0)
(0.039968046 2.9720032e-13 0)
(0.039968046 2.6914621e-13 0)
(0.039968046 1.8399526e-13 0)
(0.039968046 6.9207733e-14 0)
(0.039968046 1.8372257e-13 0)
(0.039968046 2.2779819e-13 0)
(0.039968046 2.5541562e-13 0)
(0.039968046 2.3075047e-13 0)
(0.039968046 1.703009e-13 0)
(0.039968046 1.0203386e-13 0)
(0.039968046 5.305697e-14 0)
(0.039968046 3.7927326e-14 0)
(0.039968046 1.5083524e-13 0)
(0.039968046 1.2704877e-13 0)
(0.039968046 2.7939045e-13 0)
(0.039968046 2.8163344e-13 0)
(0.039968046 4.2712276e-13 0)
(0.039968046 3.6682963e-13 0)
(0.039968046 3.2541628e-13 0)
(0.039968046 1.5329631e-13 0)
(0.039968046 -1.59272e-14 0)
(0.039968046 -1.1695132e-13 0)
(0.039968046 -2.1430151e-13 0)
(0.039968046 -2.2726662e-13 0)
(0.039968046 -2.3226489e-13 0)
(0.039968046 -2.6217012e-13 0)
(0.039968046 -2.1388878e-13 0)
(0.039968046 -2.1551684e-13 0)
(0.039968046 -7.8071845e-14 0)
(0.039968046 -3.0741132e-14 0)
(0.039968046 1.229769e-13 0)
(0.039968046 1.3725932e-13 0)
(0.039968046 1.9351847e-13 0)
(0.039968046 1.9847768e-13 0)
(0.039968046 2.3354839e-13 0)
(0.039968046 2.418969e-13 0)
(0.039968046 2.4845442e-13 0)
(0.039968046 2.442826e-13 0)
(0.039968046 2.3332257e-13 0)
(0.039968046 2.302895e-13 0)
(0.039968046 2.1610591e-13 0)
(0.039968046 2.2119586e-13 0)
(0.039968046 2.0869469e-13 0)
(0.039968046 2.2104142e-13 0)
(0.039968046 2.0948133e-13 0)
(0.039968046 2.2566871e-13 0)
(0.039968046 2.1007709e-13 0)
(0.039968046 2.3062996e-13 0)
(0.039968046 2.0984178e-13 0)
(0.039968046 2.3379923e-13 0)
(0.039968046 2.0478017e-13 0)
(0.039968046 2.2289469e-13 0)
(0.039968046 1.8046402e-13 0)
(0.039968046 2.1745633e-13 0)
(0.039968046 2.0954422e-13 0)
(0.039968046 2.7319237e-13 0)
(0.039968046 2.2185439e-13 0)
(0.039968046 1.7841251e-13 0)
(0.039968046 2.7918868e-14 0)
(0.039968046 -3.0172455e-14 0)
(0.039968046 -7.7151977e-14 0)
(0.039968046 -1.0655982e-14 0)
(0.039968046 -5.5719862e-15 0)
(0.039968046 5.2008971e-14 0)
(0.039968046 6.5784603e-14 0)
(0.039968046 1.1646357e-13 0)
(0.039968046 1.3548097e-13 0)
(0.039968046 1.7431625e-13 0)
(0.039968046 1.7070936e-13 0)
(0.039968046 2.1923358e-13 0)
(0.039968046 1.8519531e-13 0)
(0.039968046 2.0122997e-13 0)
(0.039968046 1.5329292e-13 0)
(0.039968046 1.7420295e-13 0)
(0.039968046 1.5320172e-13 0)
(0.039968046 1.8534726e-13 0)
(0.039968046 1.7218985e-13 0)
(0.039968046 1.8456435e-13 0)
(0.039968046 1.6498348e-13 0)
(0.039968046 1.6806995e-13 0)
(0.039968046 1.6044935e-13 0)
(0.039968046 1.693227e-13 0)
(0.039968046 1.7212687e-13 0)
(0.039968046 1.8035563e-13 0)
(0.039968046 1.8387439e-13 0)
(0.039968046 1.8795894e-13 0)
(0.039968046 1.9111371e-13 0)
(0.039968046 1.9298623e-13 0)
(0.039968046 1.9554901e-13 0)
(0.039968046 1.9548423e-13 0)
(0.039968046 1.9759426e-13 0)
(0.039968046 1.9520886e-13 0)
(0.039968046 1.9648317e-13 0)
(0.039968046 1.9198359e-13 0)
(0.039968046 1.9294466e-13 0)
(0.039968046 1.8837225e-13 0)
(0.039968046 1.9117532e-13 0)
(0.039968046 1.8674952e-13 0)
(0.039968046 1.8859333e-13 0)
(0.039968046 1.8312696e-13 0)
(0.039968046 1.8866769e-13 0)
(0.039968046 1.8813361e-13 0)
(0.039968046 1.9113293e-13 0)
(0.039968046 1.7527468e-13 0)
(0.039968046 1.6515549e-13 0)
(0.039968046 1.6452964e-13 0)
(0.039968046 2.00693e-13 0)
(0.039968046 2.3024305e-13 0)
(0.039968046 2.2023689e-13 0)
(0.039968046 1.0455725e-13 0)
(0.039968046 -4.4343806e-14 0)
(0.039968046 -1.3964538e-13 0)
(0.039968046 -1.2212614e-13 0)
(0.039968046 -4.1350815e-14 0)
(0.039968046 6.0981493e-14 0)
(0.039968046 1.023657e-13 0)
(0.039968046 1.2371862e-13 0)
(0.039968046 1.2113328e-13 0)
(0.039968046 1.5237605e-13 0)
(0.039968046 1.6967926e-13 0)
(0.039968046 1.9804274e-13 0)
(0.039968046 1.9769033e-13 0)
(0.039968046 2.0069992e-13 0)
(0.039968046 1.8650112e-13 0)
(0.039968046 1.8564982e-13 0)
(0.039968046 1.7311302e-13 0)
(0.039968046 1.771999e-13 0)
(0.039968046 1.6706477e-13 0)
(0.039968046 1.7434215e-13 0)
(0.039968046 1.6457679e-13 0)
(0.039968046 1.7352841e-13 0)
(0.039968046 1.6174085e-13 0)
(0.039968046 1.708883e-13 0)
(0.039968046 1.5925815e-13 0)
(0.039968046 1.7080121e-13 0)
(0.039968046 1.6108056e-13 0)
(0.039968046 1.7299337e-13 0)
(0.039968046 1.6357973e-13 0)
(0.039968046 1.7964278e-13 0)
(0.039968046 1.7201e-13 0)
(0.039968046 1.8477597e-13 0)
(0.039968046 1.7139518e-13 0)
(0.039968046 1.8521705e-13 0)
(0.039968046 1.7953026e-13 0)
(0.039968046 1.9517155e-13 0)
(0.039968046 1.8271871e-13 0)
(0.039968046 1.9570914e-13 0)
(0.039968046 2.0835473e-13 0)
(0.039968046 2.5532663e-13 0)
(0.039968046 2.6682602e-13 0)
(0.039968046 2.4046564e-13 0)
(0.039968046 1.1221605e-13 0)
(0.039968046 -1.9392496e-15 0)
(0.039968046 -6.7529223e-14 0)
(0.039968046 -9.1712414e-14 0)
(0.039968046 -1.0728202e-13 0)
(0.039968046 -1.4019371e-13 0)
(0.039968046 -1.7299429e-13 0)
(0.039968046 -1.9442216e-13 0)
(0.039968046 -2.030414e-13 0)
(0.039968046 -2.2275127e-13 0)
(0.039968046 -2.3740894e-13 0)
(0.039968046 -2.3507802e-13 0)
(0.039968046 -1.7554088e-13 0)
(0.039968046 -7.6441014e-14 0)
(0.039968046 4.1787525e-14 0)
(0.039968046 1.0799673e-13 0)
(0.039968046 1.4348861e-13 0)
(0.039968046 1.6062649e-13 0)
(0.039968046 1.9378001e-13 0)
(0.039968046 2.1184189e-13 0)
(0.039968046 2.2992559e-13 0)
(0.039968046 2.2031302e-13 0)
(0.039968046 2.1935663e-13 0)
(0.039968046 1.987376e-13 0)
(0.039968046 2.003152e-13 0)
(0.039968046 1.8383929e-13 0)
(0.039968046 1.9088285e-13 0)
(0.039968046 1.7605689e-13 0)
(0.039968046 1.7796203e-13 0)
(0.039968046 1.6960203e-13 0)
(0.039968046 1.7543948e-13 0)
(0.039968046 1.6391247e-13 0)
(0.039968046 1.6023489e-13 0)
(0.039968046 1.6476406e-13 0)
(0.039968046 1.9584213e-13 0)
(0.039968046 2.2186636e-13 0)
(0.039968046 2.021275e-13 0)
(0.039968046 1.2641703e-13 0)
(0.039968046 1.1979389e-14 0)
(0.039968046 -7.6944082e-14 0)
(0.039968046 -1.3117345e-13 0)
(0.039968046 -1.7290979e-13 0)
(0.039968046 -2.234192e-13 0)
(0.039968046 -2.2155425e-13 0)
(0.039968046 -1.3334485e-13 0)
(0.039968046 1.0980459e-14 0)
(0.039968046 7.7752529e-14 0)
(0.039968046 9.3451172e-14 0)
(0.039968046 3.0621356e-14 0)
(0.039968046 -3.0547132e-14 0)
(0.039968046 -1.042411e-13 0)
(0.039968046 -1.3868036e-13 0)
(0.039968046 -1.7465493e-13 0)
(0.039968046 -1.6247854e-13 0)
(0.039968046 -9.239467e-14 0)
(0.039968046 4.9442867e-14 0)
(0.039968046 1.2013122e-13 0)
(0.039968046 1.1177766e-13 0)
(0.039968046 2.639453e-15 0)
(0.039968046 -8.5713021e-14 0)
(0.039968046 -1.2629505e-13 0)
(0.039968046 -7.6518652e-14 0)
(0.039968046 1.7557227e-15 0)
(0.039968046 8.4119568e-14 0)
(0.039968046 1.2180437e-13 0)
(0.039968046 1.3354307e-13 0)
(0.039968046 1.3994413e-13 0)
(0.039968046 1.7138907e-13 0)
(0.039968046 2.0891103e-13 0)
(0.039968046 2.3162795e-13 0)
(0.039968046 2.3938709e-13 0)
(0.039968046 2.2163832e-13 0)
(0.039968046 2.142473e-13 0)
(0.039968046 2.1413952e-13 0)
(0.039968046 2.4799509e-13 0)
(0.039968046 2.504012e-13 0)
(0.039968046 2.2397925e-13 0)
(0.039968046 1.0682218e-13 0)
(0.039968046 -6.9562394e-15 0)
(0.039968046 -9.2639846e-14 0)
(0.039968046 -1.1675718e-13 0)
(0.039968046 -1.4362149e-13 0)
(0.039968046 -1.6372565e-13 0)
(0.039968046 -1.9929403e-13 0)
(0.039968046 -2.0604062e-13 0)
(0.039968046 -2.1345652e-13 0)
(0.039968046 -2.1934161e-13 0)
(0.039968046 -2.4451663e-13 0)
(0.039968046 -2.5187248e-13 0)
(0.039968046 -2.1929329e-13 0)
(0.039968046 -1.1127454e-13 0)
(0.039968046 1.4061071e-15 0)
(0.039968046 7.4562337e-14 0)
(0.039968046 1.055701e-13 0)
(0.039968046 1.2145728e-13 0)
(0.039968046 1.5183754e-13 0)
(0.039968046 1.8507216e-13 0)
(0.039968046 1.9284993e-13 0)
(0.039968046 1.7854224e-13 0)
(0.039968046 1.8706536e-13 0)
(0.039968046 2.4660204e-13 0)
(0.039968046 2.5679576e-13 0)
(0.039968046 9.1775738e-14 0)
(0.039968046 -5.6746005e-14 0)
(0.36732383 0.14062829 0)
(0.29754389 0.025079378 0)
(0.1860793 0.0083694597 0)
(0.16132807 0.0041218755 0)
(0.13901859 0.0019375821 0)
(0.13040448 0.001177026 0)
(0.12396461 0.00061113074 0)
(0.12095998 0.00037192117 0)
(0.1189454 0.00019726735 0)
(0.11794826 0.00011564215 0)
(0.11733081 6.0260495e-05 0)
(0.11702581 3.3415802e-05 0)
(0.11685066 1.6511742e-05 0)
(0.11676842 8.392734e-06 0)
(0.1167257 3.6632907e-06 0)
(0.11670834 1.520837e-06 0)
(0.1167012 3.9944914e-07 0)
(0.11669986 -2.8028548e-08 0)
(0.1167004 -1.9894368e-07 0)
(0.11670175 -2.1577671e-07 0)
(0.11670304 -1.9021409e-07 0)
(0.11670415 -1.4594802e-07 0)
(0.11670497 -1.0635297e-07 0)
(0.11670557 -7.3310703e-08 0)
(0.11670597 -4.9190902e-08 0)
(0.11670624 -3.1944556e-08 0)
(0.11670642 -2.0343934e-08 0)
(0.11670653 -1.2652269e-08 0)
(0.11670659 -7.7373604e-09 0)
(0.11670664 -4.6359437e-09 0)
(0.11670666 -2.730181e-09 0)
(0.11670667 -1.5740591e-09 0)
(0.11670668 -8.8952262e-10 0)
(0.11670669 -4.9077613e-10 0)
(0.11670669 -2.6375896e-10 0)
(0.11670669 -1.3649602e-10 0)
(0.11670669 -6.7058826e-11 0)
(0.11670669 -3.027923e-11 0)
(0.11670669 -1.2059666e-11 0)
(0.11670669 -3.5312931e-12 0)
(0.11670669 -9.0431854e-14 0)
(0.11670669 1.1154002e-12 0)
(0.11670669 1.2227324e-12 0)
(0.11670669 1.1820786e-12 0)
(0.11670669 1.1895876e-12 0)
(0.11670669 1.1495113e-12 0)
(0.11670669 6.8797539e-13 0)
(0.11670669 3.3587736e-13 0)
(0.11670669 -1.1423101e-13 0)
(0.11670669 8.2518077e-14 0)
(0.11670669 1.2877253e-13 0)
(0.11670669 2.969443e-13 0)
(0.11670669 2.6014093e-13 0)
(0.11670669 1.9463958e-13 0)
(0.11670669 4.8709988e-14 0)
(0.11670669 5.5591173e-15 0)
(0.11670669 -1.5181803e-15 0)
(0.11670669 3.5898611e-13 0)
(0.11670669 2.1681786e-13 0)
(0.11670669 6.5666724e-13 0)
(0.11670669 5.5558358e-13 0)
(0.11670669 9.8765646e-13 0)
(0.11670669 8.1239724e-13 0)
(0.11670669 8.0385798e-13 0)
(0.11670669 3.9328146e-13 0)
(0.11670669 5.1224045e-14 0)
(0.11670669 -1.6354436e-13 0)
(0.11670669 -3.434143e-13 0)
(0.11670669 -3.5552492e-13 0)
(0.11670669 -3.134935e-13 0)
(0.11670669 -4.6010814e-13 0)
(0.11670669 -2.620997e-13 0)
(0.11670669 -3.198433e-13 0)
(0.11670669 6.4092614e-14 0)
(0.11670669 1.0290851e-13 0)
(0.11670669 4.1327603e-13 0)
(0.11670669 2.9685988e-13 0)
(0.11670669 4.2030427e-13 0)
(0.11670669 2.8365058e-13 0)
(0.11670669 4.1141985e-13 0)
(0.11670669 3.4151985e-13 0)
(0.11670669 4.3586662e-13 0)
(0.11670669 3.5834275e-13 0)
(0.11670669 4.1249095e-13 0)
(0.11670669 3.3607266e-13 0)
(0.11670669 3.7405886e-13 0)
(0.11670669 3.1774126e-13 0)
(0.11670669 3.5545259e-13 0)
(0.11670669 3.2242144e-13 0)
(0.11670669 3.5690279e-13 0)
(0.11670669 3.3833717e-13 0)
(0.11670669 3.5718929e-13 0)
(0.11670669 3.5311171e-13 0)
(0.11670669 3.5384522e-13 0)
(0.11670669 3.5930742e-13 0)
(0.11670669 3.3401747e-13 0)
(0.11670669 3.2756955e-13 0)
(0.11670669 2.7343243e-13 0)
(0.11670669 3.2709612e-13 0)
(0.11670669 3.5503351e-13 0)
(0.11670669 4.4838698e-13 0)
(0.11670669 3.291915e-13 0)
(0.11670669 1.5408996e-13 0)
(0.11670669 -1.7392453e-13 0)
(0.11670669 -2.7075199e-13 0)
(0.11670669 -2.8864442e-13 0)
(0.11670669 -1.7739792e-14 0)
(0.11670669 8.8097524e-14 0)
(0.11670669 2.212575e-13 0)
(0.11670669 2.2067624e-13 0)
(0.11670669 2.3147715e-13 0)
(0.11670669 2.043193e-13 0)
(0.11670669 2.3730759e-13 0)
(0.11670669 2.2786706e-13 0)
(0.11670669 3.0287927e-13 0)
(0.11670669 2.5738491e-13 0)
(0.11670669 2.747884e-13 0)
(0.11670669 1.7980807e-13 0)
(0.11670669 2.09047e-13 0)
(0.11670669 1.6706036e-13 0)
(0.11670669 2.3193484e-13 0)
(0.11670669 2.181555e-13 0)
(0.11670669 2.4565969e-13 0)
(0.11670669 2.1296117e-13 0)
(0.11670669 2.1083368e-13 0)
(0.11670669 1.9662762e-13 0)
(0.11670669 2.0611072e-13 0)
(0.11670669 2.1671885e-13 0)
(0.11670669 2.2862338e-13 0)
(0.11670669 2.4312246e-13 0)
(0.11670669 2.475733e-13 0)
(0.11670669 2.6157777e-13 0)
(0.11670669 2.6163832e-13 0)
(0.11670669 2.7387362e-13 0)
(0.11670669 2.6923328e-13 0)
(0.11670669 2.7958704e-13 0)
(0.11670669 2.6966436e-13 0)
(0.11670669 2.7746301e-13 0)
(0.11670669 2.6255408e-13 0)
(0.11670669 2.6917111e-13 0)
(0.11670669 2.5457662e-13 0)
(0.11670669 2.6609497e-13 0)
(0.11670669 2.5119001e-13 0)
(0.11670669 2.6003278e-13 0)
(0.11670669 2.4563807e-13 0)
(0.11670669 2.6560383e-13 0)
(0.11670669 2.6033133e-13 0)
(0.11670669 2.6705845e-13 0)
(0.11670669 2.237481e-13 0)
(0.11670669 2.0601054e-13 0)
(0.11670669 2.1946089e-13 0)
(0.11670669 3.1411265e-13 0)
(0.11670669 3.5136417e-13 0)
(0.11670669 2.9826531e-13 0)
(0.11670669 2.8514743e-16 0)
(0.11670669 -2.8749902e-13 0)
(0.11670669 -4.0463026e-13 0)
(0.11670669 -2.549832e-13 0)
(0.11670669 3.3016077e-14 0)
(0.11670669 2.7158673e-13 0)
(0.11670669 3.0987646e-13 0)
(0.11670669 3.0285732e-13 0)
(0.11670669 1.9122565e-13 0)
(0.11670669 2.0432981e-13 0)
(0.11670669 2.0414262e-13 0)
(0.11670669 2.6787178e-13 0)
(0.11670669 2.7106078e-13 0)
(0.11670669 2.9052578e-13 0)
(0.11670669 2.5960312e-13 0)
(0.11670669 2.6374951e-13 0)
(0.11670669 2.3036815e-13 0)
(0.11670669 2.4269604e-13 0)
(0.11670669 2.1440686e-13 0)
(0.11670669 2.3459354e-13 0)
(0.11670669 2.0790015e-13 0)
(0.11670669 2.3268395e-13 0)
(0.11670669 2.0089305e-13 0)
(0.11670669 2.27162e-13 0)
(0.11670669 1.9607975e-13 0)
(0.11670669 2.2605858e-13 0)
(0.11670669 2.0044244e-13 0)
(0.11670669 2.3110061e-13 0)
(0.11670669 2.0829607e-13 0)
(0.11670669 2.5096999e-13 0)
(0.11670669 2.2842298e-13 0)
(0.11670669 2.6162755e-13 0)
(0.11670669 2.2757754e-13 0)
(0.11670669 2.6743691e-13 0)
(0.11670669 2.5439752e-13 0)
(0.11670669 2.9434872e-13 0)
(0.11670669 2.6071837e-13 0)
(0.11670669 2.9943463e-13 0)
(0.11670669 3.3334331e-13 0)
(0.11670669 4.3928245e-13 0)
(0.11670669 4.2342451e-13 0)
(0.11670669 3.3073356e-13 0)
(0.11670669 4.6570855e-14 0)
(0.11670669 -1.6715243e-13 0)
(0.11670669 -2.2855088e-13 0)
(0.11670669 -1.9603925e-13 0)
(0.11670669 -1.2364928e-13 0)
(0.11670669 -1.4164839e-13 0)
(0.11670669 -1.8455773e-13 0)
(0.11670669 -2.3491366e-13 0)
(0.11670669 -2.797144e-13 0)
(0.11670669 -3.4443389e-13 0)
(0.11670669 -3.812805e-13 0)
(0.11670669 -3.5264406e-13 0)
(0.11670669 -1.9180283e-13 0)
(0.11670669 3.0183874e-14 0)
(0.11670669 2.4313799e-13 0)
(0.11670669 3.1252773e-13 0)
(0.11670669 3.0355887e-13 0)
(0.11670669 2.601357e-13 0)
(0.11670669 2.8612402e-13 0)
(0.11670669 3.0226298e-13 0)
(0.11670669 3.501054e-13 0)
(0.11670669 3.2885618e-13 0)
(0.11670669 3.3978627e-13 0)
(0.11670669 2.9012258e-13 0)
(0.11670669 2.9981732e-13 0)
(0.11670669 2.5530039e-13 0)
(0.11670669 2.7299543e-13 0)
(0.11670669 2.3461967e-13 0)
(0.11670669 2.3729677e-13 0)
(0.11670669 2.1427347e-13 0)
(0.11670669 2.1918916e-13 0)
(0.11670669 1.9090143e-13 0)
(0.11670669 1.8367904e-13 0)
(0.11670669 2.0685095e-13 0)
(0.11670669 2.8165099e-13 0)
(0.11670669 3.3051935e-13 0)
(0.11670669 2.4062949e-13 0)
(0.11670669 6.2309225e-14 0)
(0.11670669 -1.7055211e-13 0)
(0.11670669 -3.026121e-13 0)
(0.11670669 -3.4546091e-13 0)
(0.11670669 -3.504877e-13 0)
(0.11670669 -3.6551436e-13 0)
(0.11670669 -2.9937676e-13 0)
(0.11670669 -7.8150714e-14 0)
(0.11670669 1.9801448e-13 0)
(0.11670669 2.4165561e-13 0)
(0.11670669 1.6754658e-13 0)
(0.11670669 -8.8953831e-14 0)
(0.11670669 -2.3542838e-13 0)
(0.11670669 -3.6192254e-13 0)
(0.11670669 -3.706984e-13 0)
(0.11670669 -3.2086789e-13 0)
(0.11670669 -1.8302795e-13 0)
(0.11670669 4.300429e-14 0)
(0.11670669 3.2261021e-13 0)
(0.11670669 3.7162619e-13 0)
(0.11670669 2.3734882e-13 0)
(0.11670669 -1.1496161e-13 0)
(0.11670669 -3.1052047e-13 0)
(0.11670669 -3.3702055e-13 0)
(0.11670669 -1.1317608e-13 0)
(0.11670669 1.509682e-13 0)
(0.11670669 3.4441931e-13 0)
(0.11670669 3.7443073e-13 0)
(0.11670669 3.3468149e-13 0)
(0.11670669 2.4365522e-13 0)
(0.11670669 2.4694749e-13 0)
(0.11670669 3.0558727e-13 0)
(0.11670669 3.4762304e-13 0)
(0.11670669 3.7521594e-13 0)
(0.11670669 3.367405e-13 0)
(0.11670669 3.3677004e-13 0)
(0.11670669 3.4507476e-13 0)
(0.11670669 4.2431408e-13 0)
(0.11670669 4.0173967e-13 0)
(0.11670669 3.0229623e-13 0)
(0.11670669 4.220436e-14 0)
(0.11670669 -1.7714391e-13 0)
(0.11670669 -3.0191555e-13 0)
(0.11670669 -2.682026e-13 0)
(0.11670669 -2.4717317e-13 0)
(0.11670669 -2.2936439e-13 0)
(0.11670669 -2.8425193e-13 0)
(0.11670669 -2.9196407e-13 0)
(0.11670669 -3.2257252e-13 0)
(0.11670669 -3.5432554e-13 0)
(0.11670669 -4.1523525e-13 0)
(0.11670669 -4.02205e-13 0)
(0.11670669 -3.0140775e-13 0)
(0.11670669 -4.8804039e-14 0)
(0.11670669 1.6544841e-13 0)
(0.11670669 2.5422001e-13 0)
(0.11670669 2.4729335e-13 0)
(0.11670669 1.8568962e-13 0)
(0.11670669 2.0622619e-13 0)
(0.11670669 2.4873029e-13 0)
(0.11670669 2.5572067e-13 0)
(0.11670669 2.3178125e-13 0)
(0.11670669 2.872863e-13 0)
(0.11670669 4.3725598e-13 0)
(0.11670669 3.9996637e-13 0)
(0.11670669 -3.8591416e-14 0)
(0.11670669 -2.6476755e-13 0)
(0.50390834 0.19019021 0)
(0.43847039 0.050431496 0)
(0.29767008 0.02205531 0)
(0.25944374 0.010780099 0)
(0.22598939 0.0055621425 0)
(0.21213187 0.003230803 0)
(0.20205719 0.0017732937 0)
(0.19716897 0.0010457409 0)
(0.19394744 0.00057679528 0)
(0.19230772 0.00033133286 0)
(0.19130242 0.00017832742 0)
(0.19079327 9.7724649e-05 0)
(0.19050201 4.9921402e-05 0)
(0.1903612 2.5325367e-05 0)
(0.19028763 1.1619287e-05 0)
(0.19025609 4.9683881e-06 0)
(0.1902425 1.5961358e-06 0)
(0.19023894 1.7340655e-07 0)
(0.19023899 -3.9973029e-07 0)
(0.19024063 -5.2233907e-07 0)
(0.19024241 -4.8477494e-07 0)
(0.19024402 -3.8470864e-07 0)
(0.19024524 -2.84782e-07 0)
(0.19024615 -1.9925092e-07 0)
(0.19024677 -1.348423e-07 0)
(0.19024719 -8.8381773e-08 0)
(0.19024746 -5.664648e-08 0)
(0.19024763 -3.5483266e-08 0)
(0.19024774 -2.1823168e-08 0)
(0.1902478 -1.3161305e-08 0)
(0.19024784 -7.7975821e-09 0)
(0.19024787 -4.5287732e-09 0)
(0.19024788 -2.5787993e-09 0)
(0.19024789 -1.4356104e-09 0)
(0.19024789 -7.7926416e-10 0)
(0.19024789 -4.0916518e-10 0)
(0.1902479 -2.054899e-10 0)
(0.1902479 -9.6632318e-11 0)
(0.1902479 -4.1201345e-11 0)
(0.1902479 -1.4416013e-11 0)
(0.1902479 -2.6278284e-12 0)
(0.1902479 1.9422721e-12 0)
(0.1902479 3.0802765e-12 0)
(0.1902479 3.2221667e-12 0)
(0.1902479 3.008548e-12 0)
(0.1902479 2.6218121e-12 0)
(0.1902479 1.6069047e-12 0)
(0.1902479 8.1908586e-13 0)
(0.1902479 7.0178044e-14 0)
(0.1902479 1.8611917e-13 0)
(0.1902479 2.0319708e-13 0)
(0.1902479 4.4636533e-13 0)
(0.1902479 3.8947659e-13 0)
(0.1902479 3.2443238e-13 0)
(0.1902479 1.0217963e-13 0)
(0.1902479 5.9594453e-14 0)
(0.1902479 4.511808e-14 0)
(0.1902479 5.5829463e-13 0)
(0.1902479 3.865986e-13 0)
(0.1902479 9.8302936e-13 0)
(0.1902479 8.6464333e-13 0)
(0.1902479 1.480643e-12 0)
(0.1902479 1.275647e-12 0)
(0.1902479 1.2556617e-12 0)
(0.1902479 6.7107109e-13 0)
(0.1902479 1.780757e-13 0)
(0.1902479 -1.4391668e-13 0)
(0.1902479 -3.8632684e-13 0)
(0.1902479 -4.0698626e-13 0)
(0.1902479 -3.6930448e-13 0)
(0.1902479 -5.710944e-13 0)
(0.1902479 -3.2622327e-13 0)
(0.1902479 -3.8562103e-13 0)
(0.1902479 1.4148554e-13 0)
(0.1902479 2.2916725e-13 0)
(0.1902479 6.170669e-13 0)
(0.1902479 4.4858906e-13 0)
(0.1902479 5.6528725e-13 0)
(0.1902479 3.7053814e-13 0)
(0.1902479 5.2535129e-13 0)
(0.1902479 4.4018513e-13 0)
(0.1902479 5.6398726e-13 0)
(0.1902479 4.7105737e-13 0)
(0.1902479 5.3596174e-13 0)
(0.1902479 4.4109263e-13 0)
(0.1902479 4.8183422e-13 0)
(0.1902479 4.131746e-13 0)
(0.1902479 4.5560487e-13 0)
(0.1902479 4.2140543e-13 0)
(0.1902479 4.614774e-13 0)
(0.1902479 4.4650091e-13 0)
(0.1902479 4.6504148e-13 0)
(0.1902479 4.697609e-13 0)
(0.1902479 4.6279785e-13 0)
(0.1902479 4.7902916e-13 0)
(0.1902479 4.3493106e-13 0)
(0.1902479 4.2860355e-13 0)
(0.1902479 3.4507233e-13 0)
(0.1902479 4.2763029e-13 0)
(0.1902479 4.6861757e-13 0)
(0.1902479 6.0503164e-13 0)
(0.1902479 4.1280825e-13 0)
(0.1902479 1.2888574e-13 0)
(0.1902479 -3.494664e-13 0)
(0.1902479 -4.7386989e-13 0)
(0.1902479 -4.7298599e-13 0)
(0.1902479 -2.8305212e-14 0)
(0.1902479 1.5150294e-13 0)
(0.1902479 3.6055187e-13 0)
(0.1902479 3.6201972e-13 0)
(0.1902479 3.5654456e-13 0)
(0.1902479 2.9783062e-13 0)
(0.1902479 3.2529852e-13 0)
(0.1902479 3.0434543e-13 0)
(0.1902479 4.0231232e-13 0)
(0.1902479 3.3534918e-13 0)
(0.1902479 3.5200839e-13 0)
(0.1902479 2.179137e-13 0)
(0.1902479 2.5243243e-13 0)
(0.1902479 2.0063872e-13 0)
(0.1902479 2.9324237e-13 0)
(0.1902479 2.8558103e-13 0)
(0.1902479 3.2291441e-13 0)
(0.1902479 2.8029502e-13 0)
(0.1902479 2.7005558e-13 0)
(0.1902479 2.5029489e-13 0)
(0.1902479 2.5843947e-13 0)
(0.1902479 2.7626963e-13 0)
(0.1902479 2.9102589e-13 0)
(0.1902479 3.1526296e-13 0)
(0.1902479 3.20261e-13 0)
(0.1902479 3.4375183e-13 0)
(0.1902479 3.4247139e-13 0)
(0.1902479 3.6292833e-13 0)
(0.1902479 3.543642e-13 0)
(0.1902479 3.712963e-13 0)
(0.1902479 3.5437063e-13 0)
(0.1902479 3.6726414e-13 0)
(0.1902479 3.4268501e-13 0)
(0.1902479 3.5338626e-13 0)
(0.1902479 3.2967031e-13 0)
(0.1902479 3.4763085e-13 0)
(0.1902479 3.2395414e-13 0)
(0.1902479 3.3852038e-13 0)
(0.1902479 3.1580178e-13 0)
(0.1902479 3.4783973e-13 0)
(0.1902479 3.3931935e-13 0)
(0.1902479 3.5012278e-13 0)
(0.1902479 2.8314595e-13 0)
(0.1902479 2.6062444e-13 0)
(0.1902479 2.8268303e-13 0)
(0.1902479 4.2833874e-13 0)
(0.1902479 4.7924208e-13 0)
(0.1902479 3.8528196e-13 0)
(0.1902479 -6.1788046e-14 0)
(0.1902479 -4.5395655e-13 0)
(0.1902479 -6.2224015e-13 0)
(0.1902479 -3.6257705e-13 0)
(0.1902479 8.2971784e-14 0)
(0.1902479 4.3221346e-13 0)
(0.1902479 4.8493878e-13 0)
(0.1902479 4.4301098e-13 0)
(0.1902479 2.5308171e-13 0)
(0.1902479 2.4737912e-13 0)
(0.1902479 2.4164439e-13 0)
(0.1902479 3.4013315e-13 0)
(0.1902479 3.4865158e-13 0)
(0.1902479 3.8302087e-13 0)
(0.1902479 3.3845927e-13 0)
(0.1902479 3.4587873e-13 0)
(0.1902479 2.9546971e-13 0)
(0.1902479 3.137581e-13 0)
(0.1902479 2.7155175e-13 0)
(0.1902479 3.0142003e-13 0)
(0.1902479 2.6281131e-13 0)
(0.1902479 2.9944529e-13 0)
(0.1902479 2.5374519e-13 0)
(0.1902479 2.9178241e-13 0)
(0.1902479 2.4675313e-13 0)
(0.1902479 2.902738e-13 0)
(0.1902479 2.5204801e-13 0)
(0.1902479 2.9673669e-13 0)
(0.1902479 2.6396595e-13 0)
(0.1902479 3.2655376e-13 0)
(0.1902479 2.9450464e-13 0)
(0.1902479 3.4219429e-13 0)
(0.1902479 2.9373582e-13 0)
(0.1902479 3.5368892e-13 0)
(0.1902479 3.3798228e-13 0)
(0.1902479 3.9674766e-13 0)
(0.1902479 3.4781893e-13 0)
(0.1902479 4.0451901e-13 0)
(0.1902479 4.5705674e-13 0)
(0.1902479 6.1043542e-13 0)
(0.1902479 5.7876085e-13 0)
(0.1902479 4.2007651e-13 0)
(0.1902479 9.8750917e-15 0)
(0.1902479 -2.7512538e-13 0)
(0.1902479 -3.6484768e-13 0)
(0.1902479 -2.877357e-13 0)
(0.1902479 -1.5519066e-13 0)
(0.1902479 -1.6084467e-13 0)
(0.1902479 -2.1575685e-13 0)
(0.1902479 -2.9254338e-13 0)
(0.1902479 -3.6366216e-13 0)
(0.1902479 -4.6784191e-13 0)
(0.1902479 -5.2319565e-13 0)
(0.1902479 -4.7287522e-13 0)
(0.1902479 -2.2055511e-13 0)
(0.1902479 1.0250618e-13 0)
(0.1902479 3.9679461e-13 0)
(0.1902479 4.8349391e-13 0)
(0.1902479 4.455979e-13 0)
(0.1902479 3.5082581e-13 0)
(0.1902479 3.7312761e-13 0)
(0.1902479 3.8909017e-13 0)
(0.1902479 4.6036982e-13 0)
(0.1902479 4.3177711e-13 0)
(0.1902479 4.5000691e-13 0)
(0.1902479 3.7839157e-13 0)
(0.1902479 3.9123821e-13 0)
(0.1902479 3.2678307e-13 0)
(0.1902479 3.5149797e-13 0)
(0.1902479 2.9774783e-13 0)
(0.1902479 3.0357619e-13 0)
(0.1902479 2.719382e-13 0)
(0.1902479 2.784247e-13 0)
(0.1902479 2.3673551e-13 0)
(0.1902479 2.2530658e-13 0)
(0.1902479 2.643514e-13 0)
(0.1902479 3.7618168e-13 0)
(0.1902479 4.454267e-13 0)
(0.1902479 3.0210059e-13 0)
(0.1902479 2.5585613e-14 0)
(0.1902479 -2.9336527e-13 0)
(0.1902479 -4.6980307e-13 0)
(0.1902479 -5.0932453e-13 0)
(0.1902479 -4.9003779e-13 0)
(0.1902479 -4.8776844e-13 0)
(0.1902479 -3.6549632e-13 0)
(0.1902479 -3.9798517e-14 0)
(0.1902479 3.2752085e-13 0)
(0.1902479 3.9065012e-13 0)
(0.1902479 2.3979634e-13 0)
(0.1902479 -1.6410081e-13 0)
(0.1902479 -3.7695853e-13 0)
(0.1902479 -5.6099839e-13 0)
(0.1902479 -5.4601516e-13 0)
(0.1902479 -4.4755569e-13 0)
(0.1902479 -2.0890567e-13 0)
(0.1902479 1.3769727e-13 0)
(0.1902479 5.1283983e-13 0)
(0.1902479 5.788277e-13 0)
(0.1902479 3.304874e-13 0)
(0.1902479 -2.0452447e-13 0)
(0.1902479 -5.0597071e-13 0)
(0.1902479 -5.2660082e-13 0)
(0.1902479 -1.6608411e-13 0)
(0.1902479 2.484069e-13 0)
(0.1902479 5.3841874e-13 0)
(0.1902479 5.8066461e-13 0)
(0.1902479 4.862409e-13 0)
(0.1902479 3.2979828e-13 0)
(0.1902479 3.0695805e-13 0)
(0.1902479 3.8576689e-13 0)
(0.1902479 4.4711298e-13 0)
(0.1902479 4.9064238e-13 0)
(0.1902479 4.3549852e-13 0)
(0.1902479 4.3751477e-13 0)
(0.1902479 4.5519494e-13 0)
(0.1902479 5.7099048e-13 0)
(0.1902479 5.3269084e-13 0)
(0.1902479 3.7180061e-13 0)
(0.1902479 -6.4248888e-15 0)
(0.1902479 -2.9945949e-13 0)
(0.1902479 -4.6951833e-13 0)
(0.1902479 -3.9440118e-13 0)
(0.1902479 -3.3238496e-13 0)
(0.1902479 -2.8923439e-13 0)
(0.1902479 -3.6069467e-13 0)
(0.1902479 -3.7300351e-13 0)
(0.1902479 -4.2276364e-13 0)
(0.1902479 -4.758127e-13 0)
(0.1902479 -5.6850309e-13 0)
(0.1902479 -5.4345836e-13 0)
(0.1902479 -3.7836993e-13 0)
(0.1902479 -9.2628061e-15 0)
(0.1902479 2.7844626e-13 0)
(0.1902479 4.042684e-13 0)
(0.1902479 3.6400904e-13 0)
(0.1902479 2.5100136e-13 0)
(0.1902479 2.6283794e-13 0)
(0.1902479 3.1726244e-13 0)
(0.1902479 3.272376e-13 0)
(0.1902479 2.9268889e-13 0)
(0.1902479 3.8399562e-13 0)
(0.1902479 6.1081157e-13 0)
(0.1902479 5.4547823e-13 0)
(0.1902479 -1.0545136e-13 0)
(0.1902479 -4.2532592e-13 0)
(0.59346672 0.21467329 0)
(0.54593347 0.075998398 0)
(0.39702192 0.039312291 0)
(0.34953974 0.019720556 0)
(0.30792187 0.010726737 0)
(0.28963523 0.0061583799 0)
(0.27651264 0.0034761875 0)
(0.26994405 0.0020291071 0)
(0.26565503 0.0011409911 0)
(0.26342423 0.00065140628 0)
(0.26206335 0.00035633209 0)
(0.26136077 0.00019487252 0)
(0.26095907 0.00010129371 0)
(0.26076048 5.1591495e-05 0)
(0.260656 2.4316538e-05 0)
(0.26060945 1.0644443e-05 0)
(0.26058866 3.7610074e-06 0)
(0.26058217 7.1196864e-07 0)
(0.26058122 -5.4231751e-07 0)
(0.26058278 -8.8391957e-07 0)
(0.2605848 -8.6428421e-07 0)
(0.26058673 -7.0533541e-07 0)
(0.26058825 -5.2961338e-07 0)
(0.26058939 -3.7482949e-07 0)
(0.26059018 -2.5553001e-07 0)
(0.26059072 -1.6865215e-07 0)
(0.26059108 -1.0865806e-07 0)
(0.2605913 -6.8423782e-08 0)
(0.26059144 -4.2269693e-08 0)
(0.26059153 -2.5613331e-08 0)
(0.26059159 -1.5244097e-08 0)
(0.26059162 -8.9001789e-09 0)
(0.26059163 -5.0958618e-09 0)
(0.26059165 -2.8545847e-09 0)
(0.26059165 -1.5603505e-09 0)
(0.26059165 -8.2726711e-10 0)
(0.26059166 -4.2161101e-10 0)
(0.26059166 -2.0313938e-10 0)
(0.26059166 -8.9994116e-11 0)
(0.26059166 -3.4119248e-11 0)
(0.26059166 -8.5652897e-12 0)
(0.26059166 1.9762522e-12 0)
(0.26059166 5.3163228e-12 0)
(0.26059166 5.938619e-12 0)
(0.26059166 5.2733545e-12 0)
(0.26059166 4.1804158e-12 0)
(0.26059166 2.5436328e-12 0)
(0.26059166 1.4348605e-12 0)
(0.26059166 3.5501563e-13 0)
(0.26059166 3.0895701e-13 0)
(0.26059166 9.1769417e-14 0)
(0.26059166 2.888362e-13 0)
(0.26059166 1.3175092e-13 0)
(0.26059166 5.2619812e-14 0)
(0.26059166 -1.9344784e-13 0)
(0.26059166 -1.647522e-13 0)
(0.26059166 -1.2685329e-13 0)
(0.26059166 4.6400279e-13 0)
(0.26059166 2.9559426e-13 0)
(0.26059166 1.009755e-12 0)
(0.26059166 8.7796743e-13 0)
(0.26059166 1.5976032e-12 0)
(0.26059166 1.4021448e-12 0)
(0.26059166 1.4568809e-12 0)
(0.26059166 9.0291945e-13 0)
(0.26059166 4.4995221e-13 0)
(0.26059166 1.7238765e-13 0)
(0.26059166 -8.3895396e-14 0)
(0.26059166 -7.9651305e-14 0)
(0.26059166 -4.4965866e-14 0)
(0.26059166 -2.3103569e-13 0)
(0.26059166 4.5314248e-14 0)
(0.26059166 -3.1019202e-14 0)
(0.26059166 4.6578586e-13 0)
(0.26059166 4.2756667e-13 0)
(0.26059166 7.1519172e-13 0)
(0.26059166 3.7657255e-13 0)
(0.26059166 4.2299757e-13 0)
(0.26059166 1.5026019e-13 0)
(0.26059166 2.7776749e-13 0)
(0.26059166 1.5847946e-13 0)
(0.26059166 2.8750424e-13 0)
(0.26059166 1.9054295e-13 0)
(0.26059166 2.7066173e-13 0)
(0.26059166 1.7703681e-13 0)
(0.26059166 2.2804751e-13 0)
(0.26059166 1.584927e-13 0)
(0.26059166 2.0711757e-13 0)
(0.26059166 1.7226587e-13 0)
(0.26059166 2.1523499e-13 0)
(0.26059166 2.0107352e-13 0)
(0.26059166 2.2037484e-13 0)
(0.26059166 2.2763441e-13 0)
(0.26059166 2.1625349e-13 0)
(0.26059166 2.321932e-13 0)
(0.26059166 1.7716814e-13 0)
(0.26059166 1.7692695e-13 0)
(0.26059166 9.3270568e-14 0)