/*--------------------------------*- C++ -*----------------------------------*\
| =========                 |                                                 |
| \\      /  F ield         | OpenFOAM: The Open Source CFD Toolbox           |
|  \\    /   O peration     | Version:  2206                                  |
|   \\  /    A nd           | Website:  www.openfoam.com                      |
|    \\/     M anipulation  |                                                 |
\*---------------------------------------------------------------------------*/
FoamFile
{
    version     2.0;
    format      ascii;
    arch        "LSB;label=32;scalar=64";
    class       surfaceScalarField;
    location    "28";
    object      phi;
}
// * * * * * * * * * * * * * * * * * * * * * * * * * * * * * * * * * * * * * //

dimensions      [0 3 -1 0 0 0 0];

oriented        oriented;

internalField   nonuniform List<scalar> 
29650
(
6.0867649e-05
0.00020579915
3.2718171e-05
2.8149486e-05
2.4599022e-05
8.1191611e-06
2.0417849e-05
4.181187e-06
1.8552178e-05
1.8656846e-06
1.73737e-05
1.1784895e-06
1.6781661e-05
5.9204652e-07
1.6412314e-05
3.6934908e-07
1.622082e-05
1.9149244e-07
1.6106686e-05
1.141306e-07
1.6048258e-05
5.8423146e-08
1.6015474e-05
3.2779905e-08
1.5999542e-05
1.5929441e-08
1.5991376e-05
8.1640485e-09
1.5987889e-05
3.4863934e-09
1.598644e-05
1.4486269e-09
1.5986091e-05
3.5007075e-10
1.5986138e-05
-4.7426564e-11
1.5986349e-05
-2.1067422e-10
1.5986569e-05
-2.19555e-10
1.5986762e-05
-1.9204624e-10
1.5986908e-05
-1.4600884e-10
1.5987014e-05
-1.0615101e-10
1.5987087e-05
-7.2879768e-11
1.5987136e-05
-4.8847936e-11
1.5987167e-05
-3.1651182e-11
1.5987187e-05
-2.0140249e-11
1.59872e-05
-1.2501907e-11
1.5987208e-05
-7.6369416e-12
1.5987212e-05
-4.5666818e-12
1.5987215e-05
-2.6864403e-12
1.5987216e-05
-1.5447132e-12
1.5987217e-05
-8.7068286e-13
1.5987218e-05
-4.7703864e-13
1.5987218e-05
-2.5418732e-13
1.5987218e-05
-1.2950771e-13
1.5987218e-05
-6.1946697e-14
1.5987218e-05
-2.6563868e-14
1.5987218e-05
-8.5580921e-15
1.5987218e-05
-1.7670178e-15
1.5987218e-05
1.275232e-15
1.5987218e-05
1.3337943e-15
1.5987218e-05
2.7277372e-15
1.5987218e-05
1.853322e-15
1.5987218e-05
1.9382055e-15
1.5987218e-05
2.7444481e-16
1.5987218e-05
5.1361205e-18
1.5987218e-05
-8.9903191e-16
1.5987218e-05
7.4352515e-17
1.5987218e-05
-2.8992573e-16
1.5987218e-05
4.7712264e-16
1.5987218e-05
3.0010479e-16
1.5987218e-05
6.2729029e-16
1.5987218e-05
6.9508695e-16
1.5987218e-05
6.4726533e-16
1.5987218e-05
8.7790914e-16
1.5987218e-05
8.445758e-16
1.5987218e-05
7.6078443e-16
1.5987218e-05
7.815302e-16
1.5987218e-05
2.5332853e-16
1.5987218e-05
2.1490381e-16
1.5987218e-05
-1.1707703e-16
1.5987218e-05
-1.4682029e-16
1.5987218e-05
-1.1922503e-17
1.5987218e-05
-1.362154e-16
1.5987218e-05
5.117715e-16
1.5987218e-05
4.8736836e-16
1.5987218e-05
1.4129167e-15
1.5987218e-05
1.5010496e-15
1.5987218e-05
2.0191686e-15
1.5987218e-05
1.8598666e-15
1.5987218e-05
2.1209708e-15
1.5987218e-05
1.9872546e-15
1.5987218e-05
1.708611e-15
1.5987218e-05
1.0199207e-15
1.5987218e-05
4.2143534e-16
1.5987218e-05
-2.3082451e-16
1.5987218e-05
-4.7376776e-16
1.5987218e-05
-7.066993e-16
1.5987218e-05
-6.4297913e-16
1.5987218e-05
-6.5525316e-16
1.5987218e-05
-5.7196525e-16
1.5987218e-05
-5.5384885e-16
1.5987218e-05
-5.6685026e-16
1.5987218e-05
-4.9629012e-16
1.5987218e-05
-5.9572739e-16
1.5987218e-05
-4.5512769e-16
1.5987218e-05
-6.499936e-16
1.5987218e-05
-4.5289366e-16
1.5987218e-05
-7.525675e-16
1.5987218e-05
-5.2753369e-16
1.5987218e-05
-9.3979224e-16
1.5987218e-05
-6.9072412e-16
1.5987218e-05
-1.1563215e-15
1.5987218e-05
-8.959333e-16
1.5987218e-05
-1.4011708e-15
1.5987218e-05
-1.1292121e-15
1.5987218e-05
-1.5379517e-15
1.5987218e-05
-1.2581848e-15
1.5987218e-05
-1.6598866e-15
1.5987218e-05
-1.561114e-15
1.5987218e-05
-1.8207425e-15
1.5987218e-05
-1.4864388e-15
1.5987218e-05
-1.032486e-15
1.5987218e-05
-9.1035864e-17
1.5987218e-05
7.0272137e-16
1.5987218e-05
1.4091965e-15
1.5987218e-05
1.4572097e-15
1.5987218e-05
1.1818819e-15
1.5987218e-05
1.5606569e-16
1.5987218e-05
-7.4231426e-16
1.5987218e-05
-1.790859e-15
1.5987218e-05
-2.0817978e-15
1.5987218e-05
-1.9484133e-15
1.5987218e-05
-1.2642171e-15
1.5987218e-05
-4.2319626e-16
1.5987218e-05
1.624377e-16
1.5987218e-05
6.4478281e-16
1.5987218e-05
7.5661872e-16
1.5987218e-05
9.0370219e-16
1.5987218e-05
8.3151823e-16
1.5987218e-05
9.2190557e-16
1.5987218e-05
8.2134094e-16
1.5987218e-05
9.0629545e-16
1.5987218e-05
7.665131e-16
1.5987218e-05
8.7535543e-16
1.5987218e-05
7.1403647e-16
1.5987218e-05
8.897781e-16
1.5987218e-05
7.1210331e-16
1.5987218e-05
9.5548843e-16
1.5987218e-05
7.5145172e-16
1.5987218e-05
1.049807e-15
1.5987218e-05
8.2618128e-16
1.5987218e-05
1.1627864e-15
1.5987218e-05
9.2296132e-16
1.5987218e-05
1.2724256e-15
1.5987218e-05
1.023151e-15
1.5987218e-05
1.3704218e-15
1.5987218e-05
1.1208083e-15
1.5987218e-05
1.4537415e-15
1.5987218e-05
1.2115384e-15
1.5987218e-05
1.5305983e-15
1.5987218e-05
1.30497e-15
1.5987218e-05
1.5988878e-15
1.5987218e-05
1.3723982e-15
1.5987218e-05
1.6360433e-15
1.5987218e-05
1.4448763e-15
1.5987218e-05
1.7086472e-15
1.5987218e-05
1.5208092e-15
1.5987218e-05
1.6653421e-15
1.5987218e-05
1.4321816e-15
1.5987218e-05
1.6204192e-15
1.5987218e-05
1.5743681e-15
1.5987218e-05
1.8232419e-15
1.5987218e-05
1.6406194e-15
1.5987218e-05
1.366444e-15
1.5987218e-05
6.0607028e-16
1.5987218e-05
-4.6050362e-17
1.5987218e-05
-7.4324569e-16
1.5987218e-05
-1.0172124e-15
1.5987218e-05
-1.1787201e-15
1.5987218e-05
-1.0503649e-15
1.5987218e-05
-9.8420809e-16
1.5987218e-05
-8.7848713e-16
1.5987218e-05
-9.5145304e-16
1.5987218e-05
-9.8838302e-16
1.5987218e-05
-1.0471418e-15
1.5987218e-05
-1.0832931e-15
1.5987218e-05
-1.0810153e-15
1.5987218e-05
-1.1106114e-15
1.5987218e-05
-1.0707762e-15
1.5987218e-05
-1.1093861e-15
1.5987218e-05
-1.046109e-15
1.5987218e-05
-1.0997893e-15
1.5987218e-05
-1.0171409e-15
1.5987218e-05
-1.0880381e-15
1.5987218e-05
-9.7664979e-16
1.5987218e-05
-1.0537999e-15
1.5987218e-05
-9.1886734e-16
1.5987218e-05
-1.0147806e-15
1.5987218e-05
-8.9707725e-16
1.5987218e-05
-1.0148251e-15
1.5987218e-05
-8.8872524e-16
1.5987218e-05
-1.0362354e-15
1.5987218e-05
-9.281449e-16
1.5987218e-05
-1.1183017e-15
1.5987218e-05
-9.8735739e-16
1.5987218e-05
-1.1884954e-15
1.5987218e-05
-1.0554796e-15
1.5987218e-05
-1.2887363e-15
1.5987218e-05
-1.1171632e-15
1.5987218e-05
-1.2999455e-15
1.5987218e-05
-1.1264351e-15
1.5987218e-05
-1.4437585e-15
1.5987218e-05
-1.4274641e-15
1.5987218e-05
-1.6928076e-15
1.5987218e-05
-1.4057022e-15
1.5987218e-05
-1.099357e-15
1.5987218e-05
-3.5995865e-16
1.5987218e-05
2.0126539e-16
1.5987218e-05
6.9144653e-16
1.5987218e-05
8.5816862e-16
1.5987218e-05
9.755979e-16
1.5987218e-05
1.057906e-15
1.5987218e-05
1.223723e-15
1.5987218e-05
1.3455723e-15
1.5987218e-05
1.2594536e-15
1.5987218e-05
9.0233028e-16
1.5987218e-05
2.4552151e-16
1.5987218e-05
-4.1088089e-16
1.5987218e-05
-9.8369869e-16
1.5987218e-05
-1.287064e-15
1.5987218e-05
-1.4613752e-15
1.5987218e-05
-1.4692147e-15
1.5987218e-05
-1.4975711e-15
1.5987218e-05
-1.4272372e-15
1.5987218e-05
-1.3903253e-15
1.5987218e-05
-1.3018829e-15
1.5987218e-05
-1.3709016e-15
1.5987218e-05
-1.4917326e-15
1.5987218e-05
-1.6476112e-15
1.5987218e-05
-1.5711271e-15
1.5987218e-05
-1.2415746e-15
1.5987218e-05
-6.0860744e-16
1.5987218e-05
1.1239257e-16
1.5987218e-05
7.3542934e-16
1.5987218e-05
1.1740925e-15
1.5987218e-05
1.374144e-15
1.5987218e-05
1.4275342e-15
1.5987218e-05
1.3402237e-15
1.5987218e-05
1.3612725e-15
1.5987218e-05
1.4530315e-15
1.5987218e-05
1.653457e-15
1.5987218e-05
1.6029035e-15
1.5987218e-05
1.3951352e-15
1.5987218e-05
8.1638064e-16
1.5987218e-05
2.0471935e-16
1.5987218e-05
-5.1222905e-16
1.5987218e-05
-1.0483705e-15
1.5987218e-05
-1.4609264e-15
1.5987218e-05
-1.5038391e-15
1.5987218e-05
-1.2498101e-15
1.5987218e-05
-6.247731e-16
1.5987218e-05
7.4889662e-17
1.5987218e-05
7.125176e-16
1.5987218e-05
1.0277923e-15
1.5987218e-05
1.2184933e-15
1.5987218e-05
1.2832709e-15
1.5987218e-05
1.4325809e-15
1.5987218e-05
1.4857478e-15
1.5987218e-05
1.4058251e-15
1.5987218e-05
1.0029679e-15
1.5987218e-05
3.9901126e-16
1.5987218e-05
-3.0894563e-16
1.5987218e-05
-8.7555039e-16
1.5987218e-05
-1.2384933e-15
1.5987218e-05
-1.4123124e-15
1.5987218e-05
-1.4430213e-15
1.5987218e-05
-1.4556181e-15
1.5987218e-05
-1.4321012e-15
1.5987218e-05
-1.4767423e-15
1.5987218e-05
-1.4440749e-15
1.5987218e-05
-1.4285511e-15
1.5987218e-05
-1.3447647e-15
1.5987218e-05
-1.4177459e-15
1.5987218e-05
-1.5338872e-15
1.5987218e-05
-1.7176178e-15
1.5987218e-05
-1.6298654e-15
1.5987218e-05
-1.3342675e-15
1.5987218e-05
-7.0480017e-16
1.5987218e-05
-1.1767179e-16
1.5987218e-05
4.9708815e-16
1.5987218e-05
9.0470199e-16
1.5987218e-05
1.3605858e-15
1.5987218e-05
1.5882954e-15
1.5987218e-05
1.6214379e-15
1.5987218e-05
1.2654154e-15
1.5987218e-05
6.9200532e-16
1.5987218e-05
-3.9750079e-17
1.5987218e-05
-6.0243493e-16
1.5987218e-05
-1.0153811e-15
1.5987218e-05
-1.2030201e-15
1.5987218e-05
-1.2750238e-15
1.5987218e-05
-1.2605174e-15
1.5987218e-05
-1.2491995e-15
1.5987218e-05
-1.2596562e-15
1.5987218e-05
-1.2879515e-15
1.5987218e-05
-1.3222971e-15
1.5987218e-05
-1.3435652e-15
1.5987218e-05
-1.3500548e-15
1.5987218e-05
-1.3238894e-15
1.5987218e-05
-1.3282872e-15
1.5987218e-05
-1.3550962e-15
1.5987218e-05
-1.3932977e-15
1.5987218e-05
-1.2928431e-15
1.5987218e-05
-1.2041937e-15
1.5987218e-05
-1.3407305e-15
1.5987218e-05
-1.6813808e-15
1.5987218e-05
-1.5431119e-15
-7.2136488e-16
0.00014027132
0.00033219464
9.2549244e-05
7.5871574e-05
7.0338073e-05
3.033035e-05
5.9620314e-05
1.4898965e-05
5.4019643e-05
7.4663742e-06
5.0795344e-05
4.4028058e-06
4.901105e-05
2.376355e-06
4.7964745e-05
1.4156631e-06
4.7384384e-05
7.7185543e-07
4.7052234e-05
4.4627872e-07
4.6872682e-05
2.3796954e-07
4.677453e-05
1.3092627e-07
4.6724186e-05
6.626886e-08
4.6698685e-05
3.3662724e-08
4.6686924e-05
1.5245219e-08
4.6681892e-05
6.4798289e-09
4.6680252e-05
1.990769e-09
4.6680058e-05
1.4669683e-10
4.6680445e-05
-5.9695786e-10
4.6680961e-05
-7.3565754e-10
4.6681443e-05
-6.7306792e-10
4.6681826e-05
-5.2904767e-10
4.668211e-05
-3.9003076e-10
4.6682309e-05
-2.7181424e-10
4.6682444e-05
-1.8359279e-10
4.6682532e-05
-1.2007319e-10
4.6682589e-05
-7.6855616e-11
4.6682624e-05
-4.8058897e-11
4.6682646e-05
-2.951791e-11
4.6682659e-05
-1.7772563e-11
4.6682667e-05
-1.051717e-11
4.6682672e-05
-6.0964111e-12
4.6682674e-05
-3.4636862e-12
4.6682676e-05
-1.9197258e-12
4.6682676e-05
-1.0366303e-12
4.6682677e-05
-5.3996889e-13
4.6682677e-05
-2.6799104e-13
4.6682677e-05
-1.229535e-13
4.6682677e-05
-4.8697275e-14
4.6682677e-05
-1.5893027e-14
4.6682677e-05
-1.5898373e-15
4.6682677e-05
2.731293e-15
4.6682677e-05
6.5247252e-15
4.6682677e-05
5.894246e-15
4.6682677e-05
5.7215699e-15
4.6682677e-05
2.6469576e-15
4.6682677e-05
1.6882509e-15
4.6682677e-05
-3.415483e-17
4.6682677e-05
1.0184085e-15
4.6682677e-05
4.4958014e-16
4.6682677e-05
1.6704605e-15
4.6682677e-05
1.8557894e-15
4.6682677e-05
2.501873e-15
4.6682677e-05
2.859726e-15
4.6682677e-05
2.4882231e-15
4.6682677e-05
2.6820987e-15
4.6682677e-05
2.3824159e-15
4.6682677e-05
2.4196942e-15
4.6682677e-05
2.3539751e-15
4.6682677e-05
1.6071039e-15
4.6682677e-05
1.280906e-15
4.6682677e-05
7.6085891e-16
4.6682677e-05
6.785624e-16
4.6682677e-05
1.0902714e-15
4.6682677e-05
9.0448485e-16
4.6682677e-05
2.0061518e-15
4.6682677e-05
1.850726e-15
4.6682677e-05
3.2542405e-15
4.6682677e-05
3.380074e-15
4.6682677e-05
4.4835132e-15
4.6682677e-05
4.4454815e-15
4.6682677e-05
5.3937637e-15
4.6682677e-05
4.9120183e-15
4.6682677e-05
4.2168112e-15
4.6682677e-05
2.1020506e-15
4.6682677e-05
7.0202013e-16
4.6682677e-05
-1.1426181e-15
4.6682677e-05
-1.6734215e-15
4.6682677e-05
-2.4760347e-15
4.6682677e-05
-2.205548e-15
4.6682677e-05
-2.4321822e-15
4.6682677e-05
-2.0222763e-15
4.6682677e-05
-2.213383e-15
4.6682677e-05
-1.9952077e-15
4.6682677e-05
-2.124203e-15
4.6682677e-05
-2.0421683e-15
4.6682677e-05
-2.0407012e-15
4.6682677e-05
-2.1071564e-15
4.6682677e-05
-2.011032e-15
4.6682677e-05
-2.262562e-15
4.6682677e-05
-2.139174e-15
4.6682677e-05
-2.6071631e-15
4.6682677e-05
-2.4417285e-15
4.6682677e-05
-2.9988222e-15
4.6682677e-05
-2.8135453e-15
4.6682677e-05
-3.4526041e-15
4.6682677e-05
-3.2213859e-15
4.6682677e-05
-3.6432532e-15
4.6682677e-05
-3.4142406e-15
4.6682677e-05
-3.9055439e-15
4.6682677e-05
-4.0845503e-15
4.6682677e-05
-4.262151e-15
4.6682677e-05
-3.5969772e-15
4.6682677e-05
-2.1478942e-15
4.6682677e-05
-4.045711e-17
4.6682677e-05
2.1231883e-15
4.6682677e-05
3.5801492e-15
4.6682677e-05
3.93146e-15
4.6682677e-05
2.8292851e-15
4.6682677e-05
5.2643202e-16
4.6682677e-05
-1.9346801e-15
4.6682677e-05
-4.1881579e-15
4.6682677e-05
-4.8527664e-15
4.6682677e-05
-4.1848736e-15
4.6682677e-05
-2.5282426e-15
4.6682677e-05
-4.0982843e-16
4.6682677e-05
9.7801819e-16
4.6682677e-05
2.2323092e-15
4.6682677e-05
2.4902139e-15
4.6682677e-05
2.8219167e-15
4.6682677e-05
2.6034328e-15
4.6682677e-05
2.7667828e-15
4.6682677e-05
2.558481e-15
4.6682677e-05
2.719299e-15
4.6682677e-05
2.4642225e-15
4.6682677e-05
2.6386755e-15
4.6682677e-05
2.3562107e-15
4.6682677e-05
2.6396242e-15
4.6682677e-05
2.3526912e-15
4.6682677e-05
2.7519341e-15
4.6682677e-05
2.433671e-15
4.6682677e-05
2.9182839e-15
4.6682677e-05
2.5812959e-15
4.6682677e-05
3.1221669e-15
4.6682677e-05
2.7668138e-15
4.6682677e-05
3.3200325e-15
4.6682677e-05
2.9556953e-15
4.6682677e-05
3.4958731e-15
4.6682677e-05
3.1333936e-15
4.6682677e-05
3.6416813e-15
4.6682677e-05
3.2975553e-15
4.6682677e-05
3.7862954e-15
4.6682677e-05
3.478569e-15
4.6682677e-05
3.9183519e-15
4.6682677e-05
3.5915762e-15
4.6682677e-05
3.9771672e-15
4.6682677e-05
3.7333357e-15
4.6682677e-05
4.1538092e-15
4.6682677e-05
3.8808207e-15
4.6682677e-05
4.0456863e-15
4.6682677e-05
3.6619298e-15
4.6682677e-05
3.9722325e-15
4.6682677e-05
4.0890221e-15
4.6682677e-05
4.4854821e-15
4.6682677e-05
4.0210495e-15
4.6682677e-05
3.0870868e-15
4.6682677e-05
1.1582546e-15
4.6682677e-05
-5.473402e-16
4.6682677e-05
-2.1965443e-15
4.6682677e-05
-3.0121716e-15
4.6682677e-05
-3.393753e-15
4.6682677e-05
-3.2333845e-15
4.6682677e-05
-3.0460374e-15
4.6682677e-05
-2.7789514e-15
4.6682677e-05
-2.8218833e-15
4.6682677e-05
-2.9019667e-15
4.6682677e-05
-2.981119e-15
4.6682677e-05
-3.0906161e-15
4.6682677e-05
-3.070622e-15
4.6682677e-05
-3.1478421e-15
4.6682677e-05
-3.0579949e-15
4.6682677e-05
-3.136497e-15
4.6682677e-05
-3.0080251e-15
4.6682677e-05
-3.1081825e-15
4.6682677e-05
-2.9597244e-15
4.6682677e-05
-3.0863041e-15
4.6682677e-05
-2.9010265e-15
4.6682677e-05
-3.0214415e-15
4.6682677e-05
-2.7979137e-15
4.6682677e-05
-2.9513991e-15
4.6682677e-05
-2.7552607e-15
4.6682677e-05
-2.9495206e-15
4.6682677e-05
-2.7282195e-15
4.6682677e-05
-2.9713911e-15
4.6682677e-05
-2.814704e-15
4.6682677e-05
-3.1321312e-15
4.6682677e-05
-2.9380492e-15
4.6682677e-05
-3.2672441e-15
4.6682677e-05
-3.1009069e-15
4.6682677e-05
-3.4915552e-15
4.6682677e-05
-3.2262779e-15
4.6682677e-05
-3.4578538e-15
4.6682677e-05
-3.2280928e-15
4.6682677e-05
-3.8010571e-15
4.6682677e-05
-3.9437045e-15
4.6682677e-05
-4.282913e-15
4.6682677e-05
-3.4775417e-15
4.6682677e-05
-2.3789519e-15
4.6682677e-05
-4.4316886e-16
4.6682677e-05
1.1081043e-15
4.6682677e-05
2.3824288e-15
4.6682677e-05
2.8851793e-15
4.6682677e-05
3.1541812e-15
4.6682677e-05
3.3635194e-15
4.6682677e-05
3.6909784e-15
4.6682677e-05
3.8382389e-15
4.6682677e-05
3.4036314e-15
4.6682677e-05
2.2743116e-15
4.6682677e-05
5.1719667e-16
4.6682677e-05
-1.137598e-15
4.6682677e-05
-2.614439e-15
4.6682677e-05
-3.4029216e-15
4.6682677e-05
-3.8645796e-15
4.6682677e-05
-3.9274691e-15
4.6682677e-05
-3.9576353e-15
4.6682677e-05
-3.7875084e-15
4.6682677e-05
-3.6204119e-15
4.6682677e-05
-3.4311957e-15
4.6682677e-05
-3.6141215e-15
4.6682677e-05
-3.9960048e-15
4.6682677e-05
-4.3463473e-15
4.6682677e-05
-4.0622336e-15
4.6682677e-05
-3.0495122e-15
4.6682677e-05
-1.4377366e-15
4.6682677e-05
4.1751837e-16
4.6682677e-05
1.9168485e-15
4.6682677e-05
3.0798148e-15
4.6682677e-05
3.6323087e-15
4.6682677e-05
3.749729e-15
4.6682677e-05
3.5787279e-15
4.6682677e-05
3.6059206e-15
4.6682677e-05
3.9040378e-15
4.6682677e-05
4.325884e-15
4.6682677e-05
4.1562145e-15
4.6682677e-05
3.3344515e-15
4.6682677e-05
1.9041171e-15
4.6682677e-05
2.3458548e-16
4.6682677e-05
-1.4775043e-15
4.6682677e-05
-2.9249376e-15
4.6682677e-05
-3.906678e-15
4.6682677e-05
-3.8983606e-15
4.6682677e-05
-3.1041894e-15
4.6682677e-05
-1.3572724e-15
4.6682677e-05
4.1495482e-16
4.6682677e-05
2.0161267e-15
4.6682677e-05
2.8586537e-15
4.6682677e-05
3.3479703e-15
4.6682677e-05
3.6119488e-15
4.6682677e-05
3.9686415e-15
4.6682677e-05
4.0579149e-15
4.6682677e-05
3.6670701e-15
4.6682677e-05
2.5406876e-15
4.6682677e-05
8.909071e-16
4.6682677e-05
-8.309075e-16
4.6682677e-05
-2.3002003e-15
4.6682677e-05
-3.2104469e-15
4.6682677e-05
-3.6984669e-15
4.6682677e-05
-3.7719412e-15
4.6682677e-05
-3.7731994e-15
4.6682677e-05
-3.7073479e-15
4.6682677e-05
-3.7814121e-15
4.6682677e-05
-3.7066401e-15
4.6682677e-05
-3.6140063e-15
4.6682677e-05
-3.4411647e-15
4.6682677e-05
-3.634381e-15
4.6682677e-05
-3.9902879e-15
4.6682677e-05
-4.3842946e-15
4.6682677e-05
-4.0616041e-15
4.6682677e-05
-3.084604e-15
4.6682677e-05
-1.4933552e-15
4.6682677e-05
6.5340187e-17
4.6682677e-05
1.4684494e-15
4.6682677e-05
2.6479776e-15
4.6682677e-05
3.6873729e-15
4.6682677e-05
4.2071553e-15
4.6682677e-05
4.0438319e-15
4.6682677e-05
2.9197226e-15
4.6682677e-05
1.3882611e-15
4.6682677e-05
-4.6939741e-16
4.6682677e-05
-1.8440891e-15
4.6682677e-05
-2.8846346e-15
4.6682677e-05
-3.3752933e-15
4.6682677e-05
-3.5237591e-15
4.6682677e-05
-3.4591816e-15
4.6682677e-05
-3.3827278e-15
4.6682677e-05
-3.3741622e-15
4.6682677e-05
-3.4261466e-15
4.6682677e-05
-3.513526e-15
4.6682677e-05
-3.5563167e-15
4.6682677e-05
-3.5743461e-15
4.6682677e-05
-3.4926862e-15
4.6682677e-05
-3.4985093e-15
4.6682677e-05
-3.5851807e-15
4.6682677e-05
-3.6810757e-15
4.6682677e-05
-3.3768387e-15
4.6682677e-05
-3.116433e-15
4.6682677e-05
-3.605351e-15
4.6682677e-05
-4.537126e-15
4.6682677e-05
-3.9897423e-15
-1.6443977e-15
0.00019469214
0.0004041693
0.00014360962
0.0001269541
0.00011230147
6.1638491e-05
9.6619294e-05
3.0581142e-05
8.7762221e-05
1.6323445e-05
8.2755406e-05
9.4096186e-06
7.9871702e-05
5.2600587e-06
7.8206034e-05
3.0813305e-06
7.7256668e-05
1.7212215e-06
7.6718195e-05
9.8475323e-07
7.6420462e-05
5.3570264e-07
7.6258218e-05
2.9317143e-07
7.6172993e-05
1.5149447e-07
7.61296e-05
7.7056062e-08
7.6108851e-05
3.5994068e-08
7.6099695e-05
1.5635433e-08
7.6096324e-05
5.3616024e-09
7.6095587e-05
8.8346733e-10
7.6095937e-05
-9.4621335e-10
7.6096611e-05
-1.4102927e-09
7.609729e-05
-1.352422e-09
7.6097854e-05
-1.0925407e-09
7.609828e-05
-8.1618113e-10
7.6098584e-05
-5.7532214e-10
7.6098791e-05
-3.9122916e-10
7.6098929e-05
-2.5761734e-10
7.6099018e-05
-1.6569482e-10
7.6099074e-05
-1.0415578e-10
7.6099108e-05
-6.4248123e-11
7.609913e-05
-3.8867578e-11
7.6099142e-05
-2.310018e-11
7.609915e-05
-1.3462447e-11
7.6099154e-05
-7.6933446e-12
7.6099156e-05
-4.2962991e-12
7.6099157e-05
-2.3398587e-12
7.6099158e-05
-1.2336917e-12
7.6099158e-05
-6.2348462e-13
7.6099159e-05
-2.9606109e-13
7.6099159e-05
-1.2614201e-13
7.6099159e-05
-4.6000532e-14
7.6099159e-05
-9.0346532e-15
7.6099159e-05
4.3446833e-15
7.6099159e-05
1.1848524e-14
7.6099159e-05
1.120306e-14
7.6099159e-05
1.0606943e-14
7.6099159e-05
5.97887e-15
7.6099159e-05
3.9988018e-15
7.6099159e-05
9.2811738e-16
7.6099159e-05
1.6580815e-15
7.6099159e-05
3.4723243e-16
7.6099159e-05
1.6308208e-15
7.6099159e-05
1.4714305e-15
7.6099159e-05
2.254159e-15
7.6099159e-05
2.5303209e-15
7.6099159e-05
2.1944996e-15
7.6099159e-05
2.3906469e-15
7.6099159e-05
2.0423773e-15
7.6099159e-05
1.9438086e-15
7.6099159e-05
1.8984465e-15
7.6099159e-05
8.7275536e-16
7.6099159e-05
5.8009922e-16
7.6099159e-05
-1.9563177e-16
7.6099159e-05
-3.0585221e-16
7.6099159e-05
2.3336899e-17
7.6099159e-05
-1.5378413e-16
7.6099159e-05
1.118282e-15
7.6099159e-05
1.0293691e-15
7.6099159e-05
2.7888249e-15
7.6099159e-05
3.0474687e-15
7.6099159e-05
4.3384537e-15
7.6099159e-05
4.3984955e-15
7.6099159e-05
5.1832291e-15
7.6099159e-05
4.8319097e-15
7.6099159e-05
3.9839212e-15
7.6099159e-05
2.1881966e-15
7.6099159e-05
7.4374897e-16
7.6099159e-05
-7.8547916e-16
7.6099159e-05
-1.3821638e-15
7.6099159e-05
-1.9535651e-15
7.6099159e-05
-1.817875e-15
7.6099159e-05
-1.8443572e-15
7.6099159e-05
-1.6085823e-15
7.6099159e-05
-1.5776906e-15
7.6099159e-05
-1.5550329e-15
7.6099159e-05
-1.4434682e-15
7.6099159e-05
-1.5866477e-15
7.6099159e-05
-1.3363731e-15
7.6099159e-05
-1.65787e-15
7.6099159e-05
-1.3139738e-15
7.6099159e-05
-1.8520816e-15
7.6099159e-05
-1.4885629e-15
7.6099159e-05
-2.2683701e-15
7.6099159e-05
-1.8819657e-15
7.6099159e-05
-2.7747429e-15
7.6099159e-05
-2.3825678e-15
7.6099159e-05
-3.3477238e-15
7.6099159e-05
-2.9128033e-15
7.6099159e-05
-3.6530367e-15
7.6099159e-05
-3.2336894e-15
7.6099159e-05
-3.9829355e-15
7.6099159e-05
-3.9054448e-15
7.6099159e-05
-4.1692423e-15
7.6099159e-05
-3.3058806e-15
7.6099159e-05
-1.926256e-15
7.6099159e-05
1.9917737e-16
7.6099159e-05
2.1919105e-15
7.6099159e-05
3.6593222e-15
7.6099159e-05
3.8674014e-15
7.6099159e-05
2.9003836e-15
7.6099159e-05
5.679659e-16
7.6099159e-05
-1.7543728e-15
7.6099159e-05
-4.013773e-15
7.6099159e-05
-4.6673137e-15
7.6099159e-05
-4.0994636e-15
7.6099159e-05
-2.5687281e-15
7.6099159e-05
-5.8388777e-16
7.6099159e-05
6.9562058e-16
7.6099159e-05
1.884962e-15
7.6099159e-05
2.0985726e-15
7.6099159e-05
2.4372542e-15
7.6099159e-05
2.1814117e-15
7.6099159e-05
2.3719569e-15
7.6099159e-05
2.1060671e-15
7.6099159e-05
2.3164059e-15
7.6099159e-05
1.995493e-15
7.6099159e-05
2.2460006e-15
7.6099159e-05
1.8852833e-15
7.6099159e-05
2.2675573e-15
7.6099159e-05
1.8886077e-15
7.6099159e-05
2.4087149e-15
7.6099159e-05
1.9912919e-15
7.6099159e-05
2.6138611e-15
7.6099159e-05
2.1707574e-15
7.6099159e-05
2.8599153e-15
7.6099159e-05
2.3938934e-15
7.6099159e-05
3.0975972e-15
7.6099159e-05
2.6207497e-15
7.6099159e-05
3.3071592e-15
7.6099159e-05
2.8344047e-15
7.6099159e-05
3.4815706e-15
7.6099159e-05
3.0343028e-15
7.6099159e-05
3.652578e-15
7.6099159e-05
3.248688e-15
7.6099159e-05
3.8075162e-15
7.6099159e-05
3.3990153e-15
7.6099159e-05
3.8969882e-15
7.6099159e-05
3.5763986e-15
7.6099159e-05
4.0771046e-15
7.6099159e-05
3.7386508e-15
7.6099159e-05
3.9708786e-15
7.6099159e-05
3.5519137e-15
7.6099159e-05
3.9162752e-15
7.6099159e-05
3.9142615e-15
7.6099159e-05
4.2722602e-15
7.6099159e-05
3.7152216e-15
7.6099159e-05
2.7646547e-15
7.6099159e-05
9.1517433e-16
7.6099159e-05
-7.1450215e-16
7.6099159e-05
-2.2685871e-15
7.6099159e-05
-3.0028505e-15
7.6099159e-05
-3.3328271e-15
7.6099159e-05
-3.105656e-15
7.6099159e-05
-2.8612716e-15
7.6099159e-05
-2.5684806e-15
7.6099159e-05
-2.5666129e-15
7.6099159e-05
-2.6347714e-15
7.6099159e-05
-2.7022324e-15
7.6099159e-05
-2.81727e-15
7.6099159e-05
-2.7809499e-15
7.6099159e-05
-2.8725102e-15
7.6099159e-05
-2.7582902e-15
7.6099159e-05
-2.8564664e-15
7.6099159e-05
-2.6971056e-15
7.6099159e-05
-2.8229993e-15
7.6099159e-05
-2.6327847e-15
7.6099159e-05
-2.7926894e-15
7.6099159e-05
-2.5501882e-15
7.6099159e-05
-2.7144785e-15
7.6099159e-05
-2.4273332e-15
7.6099159e-05
-2.6298075e-15
7.6099159e-05
-2.3778792e-15
7.6099159e-05
-2.6238086e-15
7.6099159e-05
-2.3596764e-15
7.6099159e-05
-2.6695296e-15
7.6099159e-05
-2.4682002e-15
7.6099159e-05
-2.8661087e-15
7.6099159e-05
-2.6316744e-15
7.6099159e-05
-3.0631934e-15
7.6099159e-05
-2.8552256e-15
7.6099159e-05
-3.3412465e-15
7.6099159e-05
-3.0186225e-15
7.6099159e-05
-3.355842e-15
7.6099159e-05
-3.0539591e-15
7.6099159e-05
-3.6884495e-15
7.6099159e-05
-3.665698e-15
7.6099159e-05
-3.9793081e-15
7.6099159e-05
-3.0852437e-15
7.6099159e-05
-2.039934e-15
7.6099159e-05
-2.1510727e-16
7.6099159e-05
1.1866523e-15
7.6099159e-05
2.330986e-15
7.6099159e-05
2.7763042e-15
7.6099159e-05
3.0380296e-15
7.6099159e-05
3.2459755e-15
7.6099159e-05
3.5272993e-15
7.6099159e-05
3.6318301e-15
7.6099159e-05
3.1432961e-15
7.6099159e-05
2.0560746e-15
7.6099159e-05
3.8502068e-16
7.6099159e-05
-1.1619023e-15
7.6099159e-05
-2.5252911e-15
7.6099159e-05
-3.2626722e-15
7.6099159e-05
-3.7027424e-15
7.6099159e-05
-3.7458769e-15
7.6099159e-05
-3.7862866e-15
7.6099159e-05
-3.5984555e-15
7.6099159e-05
-3.4604891e-15
7.6099159e-05
-3.2731705e-15
7.6099159e-05
-3.4696007e-15
7.6099159e-05
-3.8047907e-15
7.6099159e-05
-4.1061758e-15
7.6099159e-05
-3.7714089e-15
7.6099159e-05
-2.7967826e-15
7.6099159e-05
-1.2376248e-15
7.6099159e-05
4.6309657e-16
7.6099159e-05
1.8867971e-15
7.6099159e-05
2.9472252e-15
7.6099159e-05
3.4644812e-15
7.6099159e-05
3.5977347e-15
7.6099159e-05
3.4371011e-15
7.6099159e-05
3.4991689e-15
7.6099159e-05
3.7517967e-15
7.6099159e-05
4.1267061e-15
7.6099159e-05
3.8613799e-15
7.6099159e-05
3.1038955e-15
7.6099159e-05
1.6686943e-15
7.6099159e-05
1.5527116e-16
7.6099159e-05
-1.4882984e-15
7.6099159e-05
-2.7972587e-15
7.6099159e-05
-3.6849196e-15
7.6099159e-05
-3.6408635e-15
7.6099159e-05
-2.8147267e-15
7.6099159e-05
-1.1946357e-15
7.6099159e-05
4.8644091e-16
7.6099159e-05
1.9724959e-15
7.6099159e-05
2.763518e-15
7.6099159e-05
3.2612562e-15
7.6099159e-05
3.5101039e-15
7.6099159e-05
3.8445963e-15
7.6099159e-05
3.861275e-15
7.6099159e-05
3.4377915e-15
7.6099159e-05
2.3006343e-15
7.6099159e-05
7.6215686e-16
7.6099159e-05
-8.7787469e-16
7.6099159e-05
-2.2173984e-15
7.6099159e-05
-3.0881397e-15
7.6099159e-05
-3.5343614e-15
7.6099159e-05
-3.6191774e-15
7.6099159e-05
-3.6234168e-15
7.6099159e-05
-3.5611586e-15
7.6099159e-05
-3.6240984e-15
7.6099159e-05
-3.5395122e-15
7.6099159e-05
-3.4552243e-15
7.6099159e-05
-3.2955178e-15
7.6099159e-05
-3.4850006e-15
7.6099159e-05
-3.8018588e-15
7.6099159e-05
-4.1258813e-15
7.6099159e-05
-3.7609052e-15
7.6099159e-05
-2.8194184e-15
7.6099159e-05
-1.2928996e-15
7.6099159e-05
1.1206897e-16
7.6099159e-05
1.4681384e-15
7.6099159e-05
2.5000674e-15
7.6099159e-05
3.5012168e-15
7.6099159e-05
3.9313084e-15
7.6099159e-05
3.7350647e-15
7.6099159e-05
2.655552e-15
7.6099159e-05
1.1840581e-15
7.6099159e-05
-5.2998313e-16
7.6099159e-05
-1.8171308e-15
7.6099159e-05
-2.7792941e-15
7.6099159e-05
-3.2265501e-15
7.6099159e-05
-3.3713289e-15
7.6099159e-05
-3.2996709e-15
7.6099159e-05
-3.2301303e-15
7.6099159e-05
-3.217204e-15
7.6099159e-05
-3.2666602e-15
7.6099159e-05
-3.3345455e-15
7.6099159e-05
-3.381551e-15
7.6099159e-05
-3.3843275e-15
7.6099159e-05
-3.3219857e-15
7.6099159e-05
-3.3264031e-15
7.6099159e-05
-3.4096997e-15
7.6099159e-05
-3.4758816e-15
7.6099159e-05
-3.2073641e-15
7.6099159e-05
-3.004339e-15
7.6099159e-05
-3.4598788e-15
7.6099159e-05
-4.2399661e-15
7.6099159e-05
-3.642599e-15
-1.4854301e-15
0.00023312986
0.00043770624
0.00018548527
0.00017459869
0.00015018421
9.6939535e-05
0.0001310242
4.9741136e-05
0.00011965162
2.7696007e-05
0.0001131446
1.5916627e-05
0.00010931814
9.0865134e-06
0.00010710183
5.297642e-06
0.0001058215
3.0015642e-06
0.00010509347
1.7127888e-06
0.00010468612
9.4305478e-07
0.00010446306
5.1623441e-07
0.00010434425
2.7031148e-07
0.00010428311
1.3819256e-07
0.00010425319
6.5913568e-08
0.00010423959
2.9234184e-08
0.0001042342
1.0752314e-08
0.00010423268
2.4045837e-09
0.00010423281
-1.0810319e-09
0.00010423352
-2.1166205e-09
0.00010423431
-2.1445041e-09
0.000104235
-1.7796567e-09
0.00010423553
-1.3482004e-09
0.00010423592
-9.6043559e-10
0.00010423618
-6.576666e-10
0.00010423636
-4.3576436e-10
0.00010423648
-2.8161961e-10
0.00010423655
-1.7785944e-10
0.0001042366
-1.101546e-10
0.00010423662
-6.6918852e-11
0.00010423664
-3.993127e-11
0.00010423665
-2.3377778e-11
0.00010423666
-1.3424198e-11
0.00010423666
-7.5399959e-12
0.00010423666
-4.1333347e-12
0.00010423666
-2.198397e-12
0.00010423666
-1.1252118e-12
0.00010423666
-5.4542016e-13
0.00010423666
-2.4194405e-13
0.00010423666
-9.4011858e-14
0.00010423666
-2.4212291e-14
0.00010423666
3.626444e-15
0.00010423666
1.6831801e-14
0.00010423666
1.735167e-14
0.00010423666
1.6414656e-14
0.00010423666
1.050006e-14
0.00010423666
7.1417608e-15
0.00010423666
2.3933808e-15
0.00010423666
1.9444039e-15
0.00010423666
-3.8476091e-16
0.00010423666
4.0904638e-16
0.00010423666
5.4419332e-18
0.00010423666
7.3931009e-16
0.00010423666
1.2475606e-15
0.00010423666
8.4646697e-16
0.00010423666
1.1727188e-15
0.00010423666
6.7305381e-16
0.00010423666
6.1312742e-16
0.00010423666
4.7231075e-16
0.00010423666
-6.1053679e-16
0.00010423666
-1.0821494e-15
0.00010423666
-2.1497454e-15
0.00010423666
-2.5012255e-15
0.00010423666
-2.174144e-15
0.00010423666
-2.461525e-15
0.00010423666
-9.9229597e-16
0.00010423666
-1.1355488e-15
0.00010423666
9.3664326e-16
0.00010423666
1.4836956e-15
0.00010423666
3.270722e-15
0.00010423666
3.3275746e-15
0.00010423666
4.2200963e-15
0.00010423666
3.5433969e-15
0.00010423666
2.8756194e-15
0.00010423666
1.263317e-15
0.00010423666
6.7703431e-16
0.00010423666
-3.9435576e-16
0.00010423666
-4.0102177e-16
0.00010423666
-9.6591185e-16
0.00010423666
-5.6334628e-16
0.00010423666
-7.3273269e-16
0.00010423666
-2.658336e-16
0.00010423666
-3.4229921e-16
0.00010423666
-1.1457177e-16
0.00010423666
-1.038766e-16
0.00010423666
-8.2134187e-17
0.00010423666
7.8482493e-17
0.00010423666
-1.2264746e-16
0.00010423666
1.3008679e-16
0.00010423666
-3.5051884e-16
0.00010423666
-9.3563097e-17
0.00010423666
-8.6575435e-16
0.00010423666
-5.9066153e-16
0.00010423666
-1.5441976e-15
0.00010423666
-1.2676718e-15
0.00010423666
-2.2581531e-15
0.00010423666
-1.9042841e-15
0.00010423666
-2.6932237e-15
0.00010423666
-2.4376824e-15
0.00010423666
-3.1052767e-15
0.00010423666
-2.9740005e-15
0.00010423666
-2.8467445e-15
0.00010423666
-1.8190742e-15
0.00010423666
-4.833329e-16
0.00010423666
9.4848844e-16
0.00010423666
2.2991659e-15
0.00010423666
3.0273023e-15
0.00010423666
3.0801217e-15
0.00010423666
2.0410082e-15
0.00010423666
2.0309812e-16
0.00010423666
-1.5477604e-15
0.00010423666
-3.213677e-15
0.00010423666
-3.5377724e-15
0.00010423666
-2.9529528e-15
0.00010423666
-1.9418873e-15
0.00010423666
-5.5097575e-16
0.00010423666
4.7656011e-17
0.00010423666
1.0478303e-15
0.00010423666
1.0280263e-15
0.00010423666
1.3877559e-15
0.00010423666
9.9600614e-16
0.00010423666
1.1850473e-15
0.00010423666
8.3541681e-16
0.00010423666
1.0848386e-15
0.00010423666
7.2836434e-16
0.00010423666