/*--------------------------------*- C++ -*----------------------------------*\
| =========                 |                                                 |
| \\      /  F ield         | OpenFOAM: The Open Source CFD Toolbox           |
|  \\    /   O peration     | Version:  2206                                  |
|   \\  /    A nd           | Website:  www.openfoam.com                      |
|    \\/     M anipulation  |                                                 |
\*---------------------------------------------------------------------------*/
FoamFile
{
    version     2.0;
    format      ascii;
    arch        "LSB;label=32;scalar=64";
    class       volVectorField;
    location    "28";
    object      U;
}
// * * * * * * * * * * * * * * * * * * * * * * * * * * * * * * * * * * * * * //

dimensions      [0 1 -1 0 0 0 0];

internalField   nonuniform List<vector> 
15000
(
(0.15962853 0.053997678 0)
(0.11557193 0.0064916426 0)
(0.064251363 0.0014144245 0)
(0.055918599 0.0007496057 0)
(0.047595817 0.00028827385 0)
(0.044708798 0.00019884815 0)
(0.042412494 9.0525988e-05 0)
(0.041406637 6.0130555e-05 0)
(0.040707475 2.8980721e-05 0)
(0.04037699 1.8019958e-05 0)
(0.040167797 8.6616679e-06 0)
(0.04006866 4.9949303e-06 0)
(0.040011054 2.2667846e-06 0)
(0.039985308 1.17322e-06 0)
(0.039971973 4.4639289e-07 0)
(0.039967049 1.7385297e-07 0)
(0.03996518 1.4209539e-08 0)
(0.039965127 -3.0013468e-08 0)
(0.039965544 -4.8492118e-08 0)
(0.039966152 -4.3089143e-08 0)
(0.03996668 -3.5630452e-08 0)
(0.039967111 -2.5966645e-08 0)
(0.039967422 -1.8508884e-08 0)
(0.039967642 -1.2453905e-08 0)
(0.03996779 -8.255479e-09 0)
(0.039967887 -5.27916e-09 0)
(0.039967949 -3.328613e-09 0)
(0.039967988 -2.0429822e-09 0)
(0.039968012 -1.2366144e-09 0)
(0.039968026 -7.3112785e-10 0)
(0.039968035 -4.2549411e-10 0)
(0.03996804 -2.4092249e-10 0)
(0.039968042 -1.3354616e-10 0)
(0.039968044 -7.1499919e-11 0)
(0.039968045 -3.7102707e-11 0)
(0.039968045 -1.8059451e-11 0)
(0.039968045 -7.9440051e-12 0)
(0.039968046 -2.7442239e-12 0)
(0.039968046 -1.7036209e-13 0)
(0.039968046 4.7155907e-13 0)
(0.039968046 5.8037863e-13 0)
(0.039968046 3.4671476e-13 0)
(0.039968046 6.1936022e-13 0)
(0.039968046 3.7523157e-13 0)
(0.039968046 3.7842927e-13 0)
(0.039968046 -5.6142584e-14 0)
(0.039968046 -8.7523142e-14 0)
(0.039968046 -2.4174942e-13 0)
(0.039968046 8.1243353e-14 0)
(0.039968046 5.6763648e-14 0)
(0.039968046 2.9294092e-13 0)
(0.039968046 2.7881875e-13 0)
(0.039968046 3.5624284e-13 0)
(0.039968046 3.7447079e-13 0)
(0.039968046 3.4058937e-13 0)
(0.039968046 4.0677469e-13 0)
(0.039968046 3.913389e-13 0)
(0.039968046 3.7633142e-13 0)
(0.039968046 3.6653024e-13 0)
(0.039968046 2.284246e-13 0)
(0.039968046 2.0931059e-13 0)
(0.039968046 1.4083587e-13 0)
(0.039968046 1.394772e-13 0)
(0.039968046 1.9281158e-13 0)
(0.039968046 1.5659697e-13 0)
(0.039968046 3.4221706e-13 0)
(0.039968046 3.3054915e-13 0)
(0.039968046 5.8306459e-13 0)
(0.039968046 5.8578756e-13 0)
(0.039968046 7.2062318e-13 0)
(0.039968046 6.6662324e-13 0)
(0.039968046 7.7857764e-13 0)
(0.039968046 7.4156361e-13 0)
(0.039968046 6.6295727e-13 0)
(0.039968046 3.8947412e-13 0)
(0.039968046 1.5341642e-13 0)
(0.039968046 -1.1986435e-13 0)
(0.039968046 -2.2332105e-13 0)
(0.039968046 -3.2728285e-13 0)
(0.039968046 -3.0645339e-13 0)
(0.039968046 -3.2612501e-13 0)
(0.039968046 -2.9271152e-13 0)
(0.039968046 -3.0653188e-13 0)
(0.039968046 -2.9898953e-13 0)
(0.039968046 -2.969224e-13 0)
(0.039968046 -3.1105599e-13 0)
(0.039968046 -2.8841252e-13 0)
(0.039968046 -3.2784679e-13 0)
(0.039968046 -2.8798455e-13 0)
(0.039968046 -3.5549382e-13 0)
(0.039968046 -3.0738634e-13 0)
(0.039968046 -4.0852735e-13 0)
(0.039968046 -3.5302326e-13 0)
(0.039968046 -4.6613444e-13 0)
(0.039968046 -4.0513908e-13 0)
(0.039968046 -5.3308972e-13 0)
(0.039968046 -4.6967384e-13 0)
(0.039968046 -5.6366832e-13 0)
(0.039968046 -4.8865874e-13 0)
(0.039968046 -5.8752638e-13 0)
(0.039968046 -5.8968593e-13 0)
(0.039968046 -6.7586761e-13 0)
(0.039968046 -6.0463273e-13 0)
(0.039968046 -4.3327531e-13 0)
(0.039968046 -8.9570089e-14 0)
(0.039968046 2.4082134e-13 0)
(0.039968046 5.0881876e-13 0)
(0.039968046 5.6207411e-13 0)
(0.039968046 4.4620319e-13 0)
(0.039968046 9.2183913e-14 0)
(0.039968046 -2.6477548e-13 0)
(0.039968046 -6.442705e-13 0)
(0.039968046 -7.7310377e-13 0)
(0.039968046 -7.1804806e-13 0)
(0.039968046 -4.5748255e-13 0)
(0.039968046 -1.2671179e-13 0)
(0.039968046 1.0726494e-13 0)
(0.039968046 2.909089e-13 0)
(0.039968046 3.3988342e-13 0)
(0.039968046 3.9198069e-13 0)
(0.039968046 3.7492982e-13 0)
(0.039968046 4.0614974e-13 0)
(0.039968046 3.7906229e-13 0)
(0.039968046 4.026992e-13 0)
(0.039968046 3.6154764e-13 0)
(0.039968046 3.8919124e-13 0)
(0.039968046 3.4371759e-13 0)
(0.039968046 3.9084422e-13 0)
(0.039968046 3.4267681e-13 0)
(0.039968046 4.0842038e-13 0)
(0.039968046 3.5320082e-13 0)
(0.039968046 4.3400814e-13 0)
(0.039968046 3.7426863e-13 0)
(0.039968046 4.6596822e-13 0)
(0.039968046 4.0221503e-13 0)
(0.039968046 4.9708968e-13 0)
(0.039968046 4.310461e-13 0)
(0.039968046 5.2539372e-13 0)
(0.039968046 4.5962367e-13 0)
(0.039968046 5.49686e-13 0)
(0.039968046 4.8549598e-13 0)
(0.039968046 5.7157808e-13 0)
(0.039968046 5.1259412e-13 0)
(0.039968046 5.9133425e-13 0)
(0.039968046 5.2997869e-13 0)
(0.039968046 5.9797011e-13 0)
(0.039968046 5.4771672e-13 0)
(0.039968046 6.2241755e-13 0)
(0.039968046 5.7491061e-13 0)
(0.039968046 6.0850952e-13 0)
(0.039968046 5.3418303e-13 0)
(0.039968046 5.8109634e-13 0)
(0.039968046 5.8596762e-13 0)
(0.039968046 6.812551e-13 0)
(0.039968046 6.5270202e-13 0)
(0.039968046 5.5751865e-13 0)
(0.039968046 2.7933056e-13 0)
(0.039968046 1.3281936e-14 0)
(0.039968046 -2.5718437e-13 0)
(0.039968046 -3.8186917e-13 0)
(0.039968046 -4.4529551e-13 0)
(0.039968046 -4.1373243e-13 0)
(0.039968046 -3.947308e-13 0)
(0.039968046 -3.6598786e-13 0)
(0.039968046 -3.9207968e-13 0)
(0.039968046 -4.1065932e-13 0)
(0.039968046 -4.3131112e-13 0)
(0.039968046 -4.4548996e-13 0)
(0.039968046 -4.4506193e-13 0)
(0.039968046 -4.5394246e-13 0)
(0.039968046 -4.4200772e-13 0)
(0.039968046 -4.5284831e-13 0)
(0.039968046 -4.3444208e-13 0)
(0.039968046 -4.4915543e-13 0)
(0.039968046 -4.2599661e-13 0)
(0.039968046 -4.4566736e-13 0)
(0.039968046 -4.1543507e-13 0)
(0.039968046 -4.3605624e-13 0)
(0.039968046 -3.9875902e-13 0)
(0.039968046 -4.2463155e-13 0)
(0.039968046 -3.9262934e-13 0)
(0.039968046 -4.2548544e-13 0)
(0.039968046 -3.893584e-13 0)
(0.039968046 -4.2863539e-13 0)
(0.039968046 -3.9980024e-13 0)
(0.039968046 -4.5311244e-13 0)
(0.039968046 -4.1830979e-13 0)
(0.039968046 -4.714341e-13 0)
(0.039968046 -4.3541943e-13 0)
(0.039968046 -5.0060503e-13 0)
(0.039968046 -4.5523492e-13 0)
(0.039968046 -4.976639e-13 0)
(0.039968046 -4.4521501e-13 0)
(0.039968046 -5.3983993e-13 0)
(0.039968046 -5.6427504e-13 0)
(0.039968046 -6.646299e-13 0)
(0.039968046 -5.9187268e-13 0)
(0.039968046 -4.6780286e-13 0)
(0.039968046 -1.7858778e-13 0)
(0.039968046 6.6355091e-14 0)
(0.039968046 2.7238526e-13 0)
(0.039968046 3.4859481e-13 0)
(0.039968046 3.8649847e-13 0)
(0.039968046 4.1437296e-13 0)
(0.039968046 4.8124006e-13 0)
(0.039968046 5.4223635e-13 0)
(0.039968046 5.3423372e-13 0)
(0.039968046 4.0807943e-13 0)
(0.039968046 1.5415039e-13 0)
(0.039968046 -1.1083841e-13 0)
(0.039968046 -3.4494732e-13 0)
(0.039968046 -4.7052377e-13 0)
(0.039968046 -5.3927751e-13 0)
(0.039968046 -5.4859644e-13 0)
(0.039968046 -5.6092088e-13 0)
(0.039968046 -5.4385196e-13 0)
(0.039968046 -5.2984648e-13 0)
(0.039968046 -4.9804669e-13 0)
(0.039968046 -5.1745145e-13 0)
(0.039968046 -5.6919868e-13 0)
(0.039968046 -6.4032132e-13 0)
(0.039968046 -6.3632793e-13 0)
(0.039968046 -5.2522998e-13 0)
(0.039968046 -2.8795949e-13 0)
(0.039968046 2.7869411e-15 0)
(0.039968046 2.5238413e-13 0)
(0.039968046 4.3178885e-13 0)
(0.039968046 5.1421887e-13 0)
(0.039968046 5.3359642e-13 0)
(0.039968046 5.0150755e-13 0)
(0.039968046 4.9970879e-13 0)
(0.039968046 5.407451e-13 0)
(0.039968046 6.2704411e-13 0)
(0.039968046 6.3737813e-13 0)
(0.039968046 5.6946611e-13 0)
(0.039968046 3.6281302e-13 0)
(0.039968046 1.1104598e-13 0)
(0.039968046 -1.6293698e-13 0)
(0.039968046 -3.8659169e-13 0)
(0.039968046 -5.5618137e-13 0)
(0.039968046 -5.9560134e-13 0)
(0.039968046 -5.1886264e-13 0)
(0.039968046 -2.826107e-13 0)
(0.039968046 -4.8985651e-15 0)
(0.039968046 2.516211e-13 0)
(0.039968046 3.8207855e-13 0)
(0.039968046 4.4828067e-13 0)
(0.039968046 4.7366918e-13 0)
(0.039968046 5.3417524e-13 0)
(0.039968046 5.7872683e-13 0)
(0.039968046 5.7332551e-13 0)
(0.039968046 4.4147881e-13 0)
(0.039968046 2.055549e-13 0)
(0.039968046 -7.3176406e-14 0)
(0.039968046 -3.080948e-13 0)
(0.039968046 -4.5281098e-13 0)
(0.039968046 -5.2253693e-13 0)
(0.039968046 -5.3497891e-13 0)
(0.039968046 -5.3990545e-13 0)
(0.039968046 -5.3491521e-13 0)
(0.039968046 -5.5344849e-13 0)
(0.039968046 -5.4778588e-13 0)
(0.039968046 -5.3978462e-13 0)
(0.039968046 -5.0659677e-13 0)
(0.039968046 -5.2527261e-13 0)
(0.039968046 -5.7490147e-13 0)
(0.039968046 -6.5622483e-13 0)
(0.039968046 -6.4754521e-13 0)
(0.039968046 -5.4505785e-13 0)
(0.039968046 -3.0786988e-13 0)
(0.039968046 -6.1324042e-14 0)
(0.039968046 1.7198053e-13 0)
(0.039968046 3.3954946e-13 0)
(0.039968046 5.0707971e-13 0)
(0.039968046 6.1086551e-13 0)
(0.039968046 6.372668e-13 0)
(0.039968046 5.2012401e-13 0)
(0.039968046 2.9954582e-13 0)
(0.039968046 7.5205215e-15 0)
(0.039968046 -2.2017649e-13 0)
(0.039968046 -3.851675e-13 0)
(0.039968046 -4.6160446e-13 0)
(0.039968046 -4.8907907e-13 0)
(0.039968046 -4.857584e-13 0)
(0.039968046 -4.8123484e-13 0)
(0.039968046 -4.8621367e-13 0)
(0.039968046 -4.9737917e-13 0)
(0.039968046 -5.1167568e-13 0)
(0.039968046 -5.1972208e-13 0)
(0.039968046 -5.227628e-13 0)
(0.039968046 -5.1142146e-13 0)
(0.039968046 -5.0999645e-13 0)
(0.039968046 -5.1993077e-13 0)
(0.039968046 -5.3885805e-13 0)
(0.039968046 -5.037632e-13 0)
(0.039968046 -4.557592e-13 0)
(0.039968046 -4.9549711e-13 0)
(0.039968046 -6.4451478e-13 0)
(0.039968046 -6.4027162e-13 0)
(0.039968046 -3.1734289e-13 0)
(0.36732383 0.14062829 0)
(0.29754389 0.025079387 0)
(0.1860793 0.0083694716 0)
(0.16132807 0.0041218862 0)
(0.13901859 0.0019375913 0)
(0.13040448 0.0011770341 0)
(0.12396461 0.0006111376 0)
(0.12095999 0.00037192584 0)
(0.1189454 0.00019726975 0)
(0.11794826 0.00011564261 0)
(0.11733081 6.0259874e-05 0)
(0.11702581 3.3414716e-05 0)
(0.11685066 1.6510553e-05 0)
(0.11676842 8.3917281e-06 0)
(0.1167257 3.6625336e-06 0)
(0.11670834 1.5203946e-06 0)
(0.1167012 3.9926328e-07 0)
(0.11669986 -2.8030032e-08 0)
(0.1167004 -1.9885343e-07 0)
(0.11670175 -2.1564922e-07 0)
(0.11670304 -1.9008636e-07 0)
(0.11670415 -1.4584264e-07 0)
(0.11670497 -1.0627936e-07 0)
(0.11670557 -7.3274149e-08 0)
(0.11670597 -4.918194e-08 0)
(0.11670624 -3.1951649e-08 0)
(0.11670642 -2.0356168e-08 0)
(0.11670653 -1.2662198e-08 0)
(0.11670659 -7.7443678e-09 0)
(0.11670664 -4.6400683e-09 0)
(0.11670666 -2.7336457e-09 0)
(0.11670667 -1.5756339e-09 0)
(0.11670668 -8.8994501e-10 0)
(0.11670669 -4.8934429e-10 0)
(0.11670669 -2.6182727e-10 0)
(0.11670669 -1.3447232e-10 0)
(0.11670669 -6.5244204e-11 0)
(0.11670669 -2.8696162e-11 0)
(0.11670669 -1.0116555e-11 0)
(0.11670669 -2.5742011e-12 0)
(0.11670669 5.369549e-13 0)
(0.11670669 1.0779861e-12 0)
(0.11670669 2.2168302e-12 0)
(0.11670669 1.753291e-12 0)
(0.11670669 1.7448914e-12 0)
(0.11670669 5.377489e-13 0)
(0.11670669 2.6681564e-13 0)
(0.11670669 -3.5366227e-13 0)
(0.11670669 2.3215482e-13 0)
(0.11670669 1.5795742e-14 0)
(0.11670669 5.5798511e-13 0)
(0.11670669 5.5306003e-13 0)
(0.11670669 8.1142124e-13 0)
(0.11670669 9.1673575e-13 0)
(0.11670669 8.1328455e-13 0)
(0.11670669 9.284523e-13 0)
(0.11670669 8.4317896e-13 0)
(0.11670669 8.1948812e-13 0)
(0.11670669 8.1105005e-13 0)
(0.11670669 4.7101438e-13 0)
(0.11670669 3.9436444e-13 0)
(0.11670669 1.7807949e-13 0)
(0.11670669 1.6273237e-13 0)
(0.11670669 3.1009648e-13 0)
(0.11670669 2.3435612e-13 0)
(0.11670669 6.9539131e-13 0)
(0.11670669 6.433723e-13 0)
(0.11670669 1.2511598e-12 0)
(0.11670669 1.2923616e-12 0)
(0.11670669 1.70221e-12 0)
(0.11670669 1.6322401e-12 0)
(0.11670669 1.9396e-12 0)
(0.11670669 1.7809921e-12 0)
(0.11670669 1.5397456e-12 0)
(0.11670669 8.207242e-13 0)
(0.11670669 2.9994385e-13 0)
(0.11670669 -3.4808049e-13 0)
(0.11670669 -5.5077704e-13 0)
(0.11670669 -8.2106164e-13 0)
(0.11670669 -7.3339569e-13 0)
(0.11670669 -7.9723291e-13 0)
(0.11670669 -6.700936e-13 0)
(0.11670669 -7.1568311e-13 0)
(0.11670669 -6.6273008e-13 0)
(0.11670669 -6.7710324e-13 0)
(0.11670669 -6.8301318e-13 0)
(0.11670669 -6.4452719e-13 0)
(0.11670669 -7.154952e-13 0)
(0.11670669 -6.373143e-13 0)
(0.11670669 -7.8469786e-13 0)
(0.11670669 -6.9096144e-13 0)
(0.11670669 -9.2465136e-13 0)
(0.11670669 -8.1248267e-13 0)
(0.11670669 -1.0828864e-12 0)
(0.11670669 -9.5993976e-13 0)
(0.11670669 -1.2612439e-12 0)
(0.11670669 -1.1233913e-12 0)
(0.11670669 -1.3421817e-12 0)
(0.11670669 -1.2007476e-12 0)
(0.11670669 -1.434161e-12 0)
(0.11670669 -1.451122e-12 0)
(0.11670669 -1.5770564e-12 0)
(0.11670669 -1.3307134e-12 0)
(0.11670669 -8.5225505e-13 0)
(0.11670669 -6.3366072e-14 0)
(0.11670669 7.0709464e-13 0)
(0.11670669 1.2722605e-12 0)
(0.11670669 1.3800503e-12 0)
(0.11670669 1.0319749e-12 0)
(0.11670669 1.755665e-13 0)
(0.11670669 -6.9284545e-13 0)
(0.11670669 -1.560766e-12 0)
(0.11670669 -1.8118284e-12 0)
(0.11670669 -1.6146779e-12 0)
(0.11670669 -1.0021141e-12 0)
(0.11670669 -2.3262642e-13 0)
(0.11670669 2.8398452e-13 0)
(0.11670669 7.3721904e-13 0)
(0.11670669 8.3431197e-13 0)
(0.11670669 9.6149832e-13 0)
(0.11670669 8.8848956e-13 0)
(0.11670669 9.564695e-13 0)
(0.11670669 8.7664445e-13 0)
(0.11670669 9.4043729e-13 0)
(0.11670669 8.3710914e-13 0)
(0.11670669 9.110069e-13 0)
(0.11670669 7.9469025e-13 0)
(0.11670669 9.1507373e-13 0)
(0.11670669 7.9244975e-13 0)
(0.11670669 9.6101551e-13 0)
(0.11670669 8.2258644e-13 0)
(0.11670669 1.0284757e-12 0)
(0.11670669 8.792958e-13 0)
(0.11670669 1.1105625e-12 0)
(0.11670669 9.5212591e-13 0)
(0.11670669 1.1904399e-12 0)
(0.11670669 1.0272492e-12 0)
(0.11670669 1.2622074e-12 0)
(0.11670669 1.0992419e-12 0)
(0.11670669 1.3223536e-12 0)
(0.11670669 1.165943e-12 0)
(0.11670669 1.3802132e-12 0)
(0.11670669 1.2372609e-12 0)
(0.11670669 1.4322084e-12 0)
(0.11670669 1.2839863e-12 0)
(0.11670669 1.4560975e-12 0)
(0.11670669 1.3377663e-12 0)
(0.11670669 1.5194077e-12 0)
(0.11670669 1.3960956e-12 0)
(0.11670669 1.4813216e-12 0)
(0.11670669 1.3161302e-12 0)
(0.11670669 1.4466846e-12 0)
(0.11670669 1.4598691e-12 0)
(0.11670669 1.6372274e-12 0)
(0.11670669 1.4781513e-12 0)
(0.11670669 1.1809721e-12 0)
(0.11670669 4.8973988e-13 0)
(0.11670669 -1.1867189e-13 0)
(0.11670669 -7.3670004e-13 0)
(0.11670669 -1.0204569e-12 0)
(0.11670669 -1.1654144e-12 0)
(0.11670669 -1.0896488e-12 0)
(0.11670669 -1.0278356e-12 0)
(0.11670669 -9.324184e-13 0)
(0.11670669 -9.6746498e-13 0)
(0.11670669 -9.9921625e-13 0)
(0.11670669 -1.0379465e-12 0)
(0.11670669 -1.0752428e-12 0)
(0.11670669 -1.0701811e-12 0)
(0.11670669 -1.0973905e-12 0)
(0.11670669 -1.0640355e-12 0)
(0.11670669 -1.0945315e-12 0)
(0.11670669 -1.0450673e-12 0)
(0.11670669 -1.0852777e-12 0)
(0.11670669 -1.0252889e-12 0)
(0.11670669 -1.0768499e-12 0)
(0.11670669 -9.9949359e-13 0)
(0.11670669 -1.051367e-12 0)
(0.11670669 -9.5738556e-13 0)
(0.11670669 -1.0227938e-12 0)
(0.11670669 -9.405078e-13 0)
(0.11670669 -1.0229053e-12 0)
(0.11670669 -9.3161142e-13 0)
(0.11670669 -1.0344217e-12 0)
(0.11670669 -9.6352474e-13 0)
(0.11670669 -1.0974929e-12 0)
(0.11670669 -1.0104233e-12 0)
(0.11670669 -1.1500952e-12 0)
(0.11670669 -1.0682333e-12 0)
(0.11670669 -1.2326453e-12 0)
(0.11670669 -1.1166629e-12 0)
(0.11670669 -1.2270492e-12 0)
(0.11670669 -1.1174896e-12 0)
(0.11670669 -1.3509263e-12 0)
(0.11670669 -1.3830131e-12 0)
(0.11670669 -1.5539692e-12 0)
(0.11670669 -1.2832248e-12 0)
(0.11670669 -9.340781e-13 0)
(0.11670669 -2.4543352e-13 0)
(0.11670669 3.0246568e-13 0)
(0.11670669 7.6795541e-13 0)
(0.11670669 9.4263737e-13 0)
(0.11670669 1.0442183e-12 0)
(0.11670669 1.1195817e-12 0)
(0.11670669 1.2517021e-12 0)
(0.11670669 1.3303812e-12 0)
(0.11670669 1.2106109e-12 0)
(0.11670669 8.3866219e-13 0)
(0.11670669 2.1967602e-13 0)
(0.11670669 -3.7731072e-13 0)
(0.11670669 -9.1784283e-13 0)
(0.11670669 -1.2017918e-12 0)
(0.11670669 -1.3686841e-12 0)
(0.11670669 -1.3874282e-12 0)
(0.11670669 -1.405439e-12 0)
(0.11670669 -1.3444766e-12 0)
(0.11670669 -1.2942552e-12 0)
(0.11670669 -1.2212228e-12 0)
(0.11670669 -1.284507e-12 0)
(0.11670669 -1.4123728e-12 0)
(0.11670669 -1.5475399e-12 0)
(0.11670669 -1.4632902e-12 0)
(0.11670669 -1.1263141e-12 0)
(0.11670669 -5.4995857e-13 0)
(0.11670669 1.1629561e-13 0)
(0.11670669 6.7395878e-13 0)
(0.11670669 1.0913658e-12 0)
(0.11670669 1.2869098e-12 0)
(0.11670669 1.332535e-12 0)
(0.11670669 1.2650084e-12 0)
(0.11670669 1.2760068e-12 0)
(0.11670669 1.3757663e-12 0)
(0.11670669 1.5398907e-12 0)
(0.11670669 1.493596e-12 0)
(0.11670669 1.2395828e-12 0)
(0.11670669 7.2555918e-13 0)
(0.11670669 1.3639433e-13 0)
(0.11670669 -4.9529367e-13 0)
(0.11670669 -1.011227e-12 0)
(0.11670669 -1.3800432e-12 0)
(0.11670669 -1.3973751e-12 0)
(0.11670669 -1.1405476e-12 0)
(0.11670669 -5.3439074e-13 0)
(0.11670669 1.031071e-13 0)
(0.11670669 6.9006774e-13 0)
(0.11670669 9.9149705e-13 0)
(0.11670669 1.1672604e-12 0)
(0.11670669 1.2494354e-12 0)
(0.11670669 1.3817215e-12 0)
(0.11670669 1.4253415e-12 0)
(0.11670669 1.3159903e-12 0)
(0.11670669 9.3166288e-13 0)
(0.11670669 3.5413065e-13 0)
(0.11670669 -2.729281e-13 0)
(0.11670669 -8.1042759e-13 0)
(0.11670669 -1.1420011e-12 0)
(0.11670669 -1.3150675e-12 0)
(0.11670669 -1.3419958e-12 0)
(0.11670669 -1.3480702e-12 0)
(0.11670669 -1.3252742e-12 0)
(0.11670669 -1.3588912e-12 0)
(0.11670669 -1.3312153e-12 0)
(0.11670669 -1.3052047e-12 0)
(0.11670669 -1.2357586e-12 0)
(0.11670669 -1.3034847e-12 0)
(0.11670669 -1.4228018e-12 0)
(0.11670669 -1.5791261e-12 0)
(0.11670669 -1.4815352e-12 0)
(0.11670669 -1.1644799e-12 0)
(0.11670669 -5.9262607e-13 0)
(0.11670669 -3.5148175e-14 0)
(0.11670669 4.9177673e-13 0)
(0.11670669 9.0255638e-13 0)
(0.11670669 1.2926126e-12 0)
(0.11670669 1.4924582e-12 0)
(0.11670669 1.4728508e-12 0)
(0.11670669 1.1022191e-12 0)
(0.11670669 5.6399707e-13 0)
(0.11670669 -1.0627615e-13 0)
(0.11670669 -6.1557121e-13 0)
(0.11670669 -9.9443961e-13 0)
(0.11670669 -1.1723491e-12 0)
(0.11670669 -1.2309995e-12 0)
(0.11670669 -1.2129567e-12 0)
(0.11670669 -1.1912975e-12 0)
(0.11670669 -1.1929854e-12 0)
(0.11670669 -1.2141201e-12 0)
(0.11670669 -1.2471306e-12 0)
(0.11670669 -1.2633695e-12 0)
(0.11670669 -1.27117e-12 0)
(0.11670669 -1.2425635e-12 0)
(0.11670669 -1.2459061e-12 0)
(0.11670669 -1.2738396e-12 0)
(0.11670669 -1.3107743e-12 0)
(0.11670669 -1.2071917e-12 0)
(0.11670669 -1.1156253e-12 0)
(0.11670669 -1.2701825e-12 0)
(0.11670669 -1.6017797e-12 0)
(0.11670669 -1.439985e-12 0)
(0.11670669 -6.2882498e-13 0)
(0.50390834 0.19019021 0)
(0.4384704 0.050431509 0)
(0.29767008 0.022055326 0)
(0.25944374 0.010780113 0)
(0.22598939 0.005562154 0)
(0.21213187 0.0032308136 0)
(0.20205719 0.0017733032 0)
(0.19716897 0.0010457479 0)
(0.19394744 0.00057679927 0)
(0.19230772 0.00033133415 0)
(0.19130242 0.00017832706 0)
(0.19079327 9.7723443e-05 0)
(0.19050201 4.991991e-05 0)
(0.1903612 2.5323989e-05 0)
(0.19028762 1.1618185e-05 0)
(0.19025609 4.9676836e-06 0)
(0.1902425 1.5957873e-06 0)
(0.19023894 1.733312e-07 0)
(0.19023899 -3.9965388e-07 0)
(0.19024063 -5.2219041e-07 0)
(0.19024241 -4.8461083e-07 0)
(0.19024402 -3.8456226e-07 0)
(0.19024524 -2.8467207e-07 0)
(0.19024615 -1.9918884e-07 0)
(0.19024677 -1.3482012e-07 0)
(0.19024719 -8.8385045e-08 0)
(0.19024746 -5.6659854e-08 0)
(0.19024763 -3.5495584e-08 0)
(0.19024774 -2.1832455e-08 0)
(0.1902478 -1.31672e-08 0)
(0.19024784 -7.8031488e-09 0)
(0.19024787 -4.5319785e-09 0)
(0.19024788 -2.5803432e-09 0)
(0.19024789 -1.4343408e-09 0)
(0.19024789 -7.7708974e-10 0)
(0.19024789 -4.067459e-10 0)
(0.1902479 -2.0337618e-10 0)
(0.1902479 -9.4735098e-11 0)
(0.1902479 -3.8796287e-11 0)
(0.1902479 -1.3274276e-11 0)
(0.1902479 -1.8054719e-12 0)
(0.1902479 1.9481241e-12 0)
(0.1902479 4.5280731e-12 0)
(0.1902479 4.1189293e-12 0)
(0.1902479 3.915862e-12 0)
(0.1902479 1.977164e-12 0)
(0.1902479 1.2760593e-12 0)
(0.1902479 1.4480248e-13 0)
(0.1902479 6.7782113e-13 0)
(0.1902479 2.5788269e-13 0)
(0.1902479 9.3572707e-13 0)
(0.1902479 9.5947368e-13 0)
(0.1902479 1.3268774e-12 0)
(0.1902479 1.4836453e-12 0)
(0.1902479 1.2934572e-12 0)
(0.1902479 1.4005284e-12 0)
(0.1902479 1.2396081e-12 0)
(0.1902479 1.2309818e-12 0)
(0.1902479 1.1963004e-12 0)
(0.1902479 7.3812551e-13 0)
(0.1902479 5.8094774e-13 0)
(0.1902479 2.6389011e-13 0)
(0.1902479 2.3242098e-13 0)
(0.1902479 4.3253245e-13 0)
(0.1902479 3.4846915e-13 0)
(0.1902479 9.4735788e-13 0)
(0.1902479 8.7529663e-13 0)
(0.1902479 1.6794552e-12 0)
(0.1902479 1.7604811e-12 0)
(0.1902479 2.3642404e-12 0)
(0.1902479 2.3620509e-12 0)
(0.1902479 2.8230733e-12 0)
(0.1902479 2.6173252e-12 0)
(0.1902479 2.2209555e-12 0)
(0.1902479 1.1783543e-12 0)
(0.1902479 3.9636805e-13 0)
(0.1902479 -5.2508244e-13 0)
(0.1902479 -8.4273537e-13 0)
(0.1902479 -1.216276e-12 0)
(0.1902479 -1.113772e-12 0)
(0.1902479 -1.1852408e-12 0)
(0.1902479 -1.0178342e-12 0)
(0.1902479 -1.0667255e-12 0)
(0.1902479 -1.0038905e-12 0)
(0.1902479 -1.0145858e-12 0)
(0.1902479 -1.028524e-12 0)
(0.1902479 -9.6899855e-13 0)
(0.1902479 -1.0661275e-12 0)
(0.1902479 -9.5650844e-13 0)
(0.1902479 -1.1558601e-12 0)
(0.1902479 -1.0327249e-12 0)
(0.1902479 -1.3502355e-12 0)
(0.1902479 -1.2094733e-12 0)
(0.1902479 -1.5770052e-12 0)
(0.1902479 -1.4282762e-12 0)
(0.1902479 -1.8392248e-12 0)
(0.1902479 -1.6695907e-12 0)
(0.1902479 -1.9631788e-12 0)
(0.1902479 -1.7921184e-12 0)
(0.1902479 -2.1091901e-12 0)
(0.1902479 -2.1504932e-12 0)
(0.1902479 -2.2821914e-12 0)
(0.1902479 -1.9075252e-12 0)
(0.1902479 -1.1612959e-12 0)
(0.1902479 -2.0023021e-14 0)
(0.1902479 1.1191278e-12 0)
(0.1902479 1.9215042e-12 0)
(0.1902479 2.0947011e-12 0)
(0.1902479 1.5503252e-12 0)
(0.1902479 3.213048e-13 0)
(0.1902479 -9.7319589e-13 0)
(0.1902479 -2.1891032e-12 0)
(0.1902479 -2.5596043e-12 0)
(0.1902479 -2.239531e-12 0)
(0.1902479 -1.3813812e-12 0)
(0.1902479 -2.6975927e-13 0)
(0.1902479 4.6427413e-13 0)
(0.1902479 1.1225062e-12 0)
(0.1902479 1.2550057e-12 0)
(0.1902479 1.4341628e-12 0)
(0.1902479 1.3155621e-12 0)
(0.1902479 1.4108243e-12 0)
(0.1902479 1.2902371e-12 0)
(0.1902479 1.3858955e-12 0)
(0.1902479 1.2361612e-12 0)
(0.1902479 1.3445483e-12 0)
(0.1902479 1.1783597e-12 0)
(0.1902479 1.3494033e-12 0)
(0.1902479 1.1781364e-12 0)
(0.1902479 1.4148187e-12 0)
(0.1902479 1.2251227e-12 0)
(0.1902479 1.5103865e-12 0)
(0.1902479 1.3094719e-12 0)
(0.1902479 1.6265734e-12 0)
(0.1902479 1.4150357e-12 0)
(0.1902479 1.7387449e-12 0)
(0.1902479 1.5222974e-12 0)
(0.1902479 1.8383072e-12 0)
(0.1902479 1.6235695e-12 0)
(0.1902479 1.9208998e-12 0)
(0.1902479 1.7170447e-12 0)
(0.1902479 2.0016455e-12 0)
(0.1902479 1.8185543e-12 0)
(0.1902479 2.0751452e-12 0)
(0.1902479 1.8849603e-12 0)
(0.1902479 2.110487e-12 0)
(0.1902479 1.9649237e-12 0)
(0.1902479 2.2041643e-12 0)
(0.1902479 2.0487311e-12 0)
(0.1902479 2.1483559e-12 0)
(0.1902479 1.9346989e-12 0)
(0.1902479 2.1054448e-12 0)
(0.1902479 2.1442387e-12 0)
(0.1902479 2.358361e-12 0)
(0.1902479 2.1144152e-12 0)
(0.1902479 1.626288e-12 0)
(0.1902479 6.2047753e-13 0)
(0.1902479 -2.885436e-13 0)
(0.1902479 -1.164187e-12 0)
(0.1902479 -1.5938282e-12 0)
(0.1902479 -1.7905585e-12 0)
(0.1902479 -1.6947717e-12 0)
(0.1902479 -1.5857856e-12 0)
(0.1902479 -1.4435153e-12 0)
(0.1902479 -1.458184e-12 0)
(0.1902479 -1.5007017e-12 0)
(0.1902479 -1.5417648e-12 0)
(0.1902479 -1.6015163e-12 0)
(0.1902479 -1.5877351e-12 0)
(0.1902479 -1.6312478e-12 0)
(0.1902479 -1.5787868e-12 0)
(0.1902479 -1.6242593e-12 0)
(0.1902479 -1.5500621e-12 0)
(0.1902479 -1.6079006e-12 0)
(0.1902479 -1.5207476e-12 0)
(0.1902479 -1.594515e-12 0)
(0.1902479 -1.4847068e-12 0)
(0.1902479 -1.5578716e-12 0)
(0.1902479 -1.4264343e-12 0)
(0.1902479 -1.5180574e-12 0)
(0.1902479 -1.4031966e-12 0)
(0.1902479 -1.517049e-12 0)
(0.1902479 -1.391388e-12 0)
(0.1902479 -1.5331425e-12 0)
(0.1902479 -1.4409484e-12 0)
(0.1902479 -1.6259711e-12 0)
(0.1902479 -1.5156717e-12 0)
(0.1902479 -1.7102201e-12 0)
(0.1902479 -1.6124424e-12 0)
(0.1902479 -1.8389423e-12 0)
(0.1902479 -1.6880324e-12 0)
(0.1902479 -1.8309303e-12 0)
(0.1902479 -1.6900642e-12 0)
(0.1902479 -2.0067636e-12 0)
(0.1902479 -2.055609e-12 0)
(0.1902479 -2.2461064e-12 0)
(0.1902479 -1.820655e-12 0)
(0.1902479 -1.2531597e-12 0)
(0.1902479 -2.3853533e-13 0)
(0.1902479 5.7711775e-13 0)
(0.1902479 1.2483974e-12 0)
(0.1902479 1.5116768e-12 0)
(0.1902479 1.6516218e-12 0)
(0.1902479 1.7617292e-12 0)
(0.1902479 1.9317394e-12 0)
(0.1902479 2.0172355e-12 0)
(0.1902479 1.7963252e-12 0)
(0.1902479 1.2186485e-12 0)
(0.1902479 2.9786719e-13 0)
(0.1902479 -5.767262e-13 0)
(0.1902479 -1.3574401e-12 0)
(0.1902479 -1.7750531e-12 0)
(0.1902479 -2.0184941e-12 0)
(0.1902479 -2.0494901e-12 0)
(0.1902479 -2.0705415e-12 0)
(0.1902479 -1.98069e-12 0)
(0.1902479 -1.9012687e-12 0)
(0.1902479 -1.7998613e-12 0)
(0.1902479 -1.8968417e-12 0)
(0.1902479 -2.0915596e-12 0)
(0.1902479 -2.2787047e-12 0)
(0.1902479 -2.1361867e-12 0)
(0.1902479 -1.6212431e-12 0)
(0.1902479 -7.7183051e-13 0)
(0.1902479 1.9757791e-13 0)
(0.1902479 1.0011864e-12 0)
(0.1902479 1.6070342e-12 0)
(0.1902479 1.8979459e-12 0)
(0.1902479 1.9650671e-12 0)
(0.1902479 1.874165e-12 0)
(0.1902479 1.8920363e-12 0)
(0.1902479 2.0420469e-12 0)
(0.1902479 2.2676802e-12 0)
(0.1902479 2.1763367e-12 0)
(0.1902479 1.7729754e-12 0)
(0.1902479 1.0115101e-12 0)
(0.1902479 1.4518575e-13 0)
(0.1902479 -7.6656533e-13 0)
(0.1902479 -1.5220803e-12 0)
(0.1902479 -2.0379728e-12 0)
(0.1902479 -2.046252e-12 0)
(0.1902479 -1.6315479e-12 0)
(0.1902479 -7.3468293e-13 0)
(0.1902479 2.0443782e-13 0)
(0.1902479 1.0507236e-12 0)
(0.1902479 1.4969749e-12 0)
(0.1902479 1.7582834e-12 0)
(0.1902479 1.8931478e-12 0)
(0.1902479 2.0827502e-12 0)
(0.1902479 2.131482e-12 0)
(0.1902479 1.9394572e-12 0)
(0.1902479 1.3524825e-12 0)
(0.1902479 4.9548204e-13 0)
(0.1902479 -4.1866045e-13 0)
(0.1902479 -1.1943249e-12 0)
(0.1902479 -1.6791574e-12 0)
(0.1902479 -1.9314381e-12 0)
(0.1902479 -1.9744361e-12 0)
(0.1902479 -1.9766085e-12 0)
(0.1902479 -1.9446933e-12 0)
(0.1902479 -1.9838793e-12 0)
(0.1902479 -1.9456698e-12 0)
(0.1902479 -1.8989077e-12 0)
(0.1902479 -1.8070992e-12 0)
(0.1902479 -1.9033884e-12 0)
(0.1902479 -2.0861304e-12 0)
(0.1902479 -2.291266e-12 0)
(0.1902479 -2.1302341e-12 0)
(0.1902479 -1.6321972e-12 0)
(0.1902479 -7.957486e-13 0)
(0.1902479 1.8234912e-14 0)
(0.1902479 7.7019495e-13 0)
(0.1902479 1.3694719e-12 0)
(0.1902479 1.9190021e-12 0)
(0.1902479 2.1887699e-12 0)
(0.1902479 2.1129502e-12 0)
(0.1902479 1.5430841e-12 0)
(0.1902479 7.3705524e-13 0)
(0.1902479 -2.3345911e-13 0)
(0.1902479 -9.6730871e-13 0)
(0.1902479 -1.5126438e-12 0)
(0.1902479 -1.7681584e-12 0)
(0.1902479 -1.8481572e-12 0)
(0.1902479 -1.8136701e-12 0)
(0.1902479 -1.7757992e-12 0)
(0.1902479 -1.7718086e-12 0)
(0.1902479 -1.8001684e-12 0)
(0.1902479 -1.8428848e-12 0)
(0.1902479 -1.8674876e-12 0)
(0.1902479 -1.8735383e-12 0)
(0.1902479 -1.8343309e-12 0)
(0.1902479 -1.8348741e-12 0)
(0.1902479 -1.8793528e-12 0)
(0.1902479 -1.9261167e-12 0)
(0.1902479 -1.7763837e-12 0)
(0.1902479 -1.6426274e-12 0)
(0.1902479 -1.8820837e-12 0)
(0.1902479 -2.3548235e-12 0)
(0.1902479 -2.0937103e-12 0)
(0.1902479 -8.8644617e-13 0)
(0.59346672 0.2146733 0)
(0.54593347 0.075998409 0)
(0.39702192 0.039312302 0)
(0.34953973 0.019720563 0)
(0.30792187 0.010726742 0)
(0.28963523 0.0061583859 0)
(0.27651264 0.0034761939 0)
(0.26994405 0.0020291126 0)
(0.26565503 0.0011409947 0)
(0.26342423 0.00065140779 0)
(0.26206335 0.00035633222 0)
(0.26136077 0.00019487186 0)
(0.26095907 0.00010129271 0)
(0.26076048 5.1590499e-05 0)
(0.260656 2.4315663e-05 0)
(0.26060945 1.0643832e-05 0)
(0.26058866 3.7606567e-06 0)
(0.26058217 7.1184345e-07 0)
(0.26058122 -5.4230116e-07 0)
(0.26058278 -8.8382755e-07 0)
(0.2605848 -8.6416856e-07 0)
(0.26058673 -7.0522561e-07 0)
(0.26058825 -5.2952456e-07 0)
(0.26058939 -3.747744e-07 0)
(0.26059018 -2.5550495e-07 0)
(0.26059072 -1.6864943e-07 0)
(0.26059108 -1.0866636e-07 0)
(0.2605913 -6.8432635e-08 0)
(0.26059144 -4.2277042e-08 0)
(0.26059153 -2.5617939e-08 0)
(0.26059158 -1.5249131e-08 0)
(0.26059162 -8.9032725e-09 0)
(0.26059163 -5.0977653e-09 0)
(0.26059165 -2.8535414e-09 0)
(0.26059165 -1.558228e-09 0)
(0.26059165 -8.2457042e-10 0)
(0.26059166 -4.190012e-10 0)
(0.26059166 -2.0078605e-10 0)
(0.26059166 -8.7153821e-11 0)
(0.26059166 -3.2689695e-11 0)
(0.26059166 -7.3261907e-12 0)
(0.26059166 2.3113189e-12 0)
(0.26059166 7.2224218e-12 0)
(0.26059166 7.0778023e-12 0)
(0.26059166 6.6687316e-12 0)
(0.26059166 4.0191564e-12 0)
(0.26059166 2.7083096e-12 0)
(0.26059166 7.818505e-13 0)
(0.26059166 9.1518019e-13 0)
(0.26059166 4.7477066e-14 0)
(0.26059166 6.0048144e-13 0)
(0.26059166 4.8743974e-13 0)
(0.26059166 8.7589043e-13 0)
(0.26059166 1.0681805e-12 0)
(0.26059166 8.6713528e-13 0)
(0.26059166 9.9353733e-13 0)
(0.26059166 7.8640787e-13 0)
(0.26059166 7.514933e-13 0)
(0.26059166 7.0862081e-13 0)
(0.26059166 1.767428e-13 0)
(0.26059166 -2.1364826e-14 0)
(0.26059166 -4.5294697e-13 0)
(0.26059166 -5.4818497e-13 0)
(0.26059166 -3.6439945e-13 0)
(0.26059166 -4.9139568e-13 0)
(0.26059166 1.8726088e-13 0)
(0.26059166 1.1709486e-13 0)
(0.26059166 1.05397e-12 0)
(0.26059166 1.2415031e-12 0)
(0.26059166 2.0126185e-12 0)
(0.26059166 2.0499834e-12 0)
(0.26059166 2.4876039e-12 0)
(0.26059166 2.2464905e-12 0)
(0.26059166 1.8497086e-12 0)
(0.26059166 9.3996996e-13 0)
(0.26059166 3.733776e-13 0)
(0.26059166 -3.3384856e-13 0)
(0.26059166 -5.2005951e-13 0)
(0.26059166 -8.2284461e-13 0)
(0.26059166 -6.929986e-13 0)
(0.26059166 -7.4380244e-13 0)
(0.26059166 -5.6787657e-13 0)
(0.26059166 -5.8254335e-13 0)
(0.26059166 -5.2051697e-13 0)
(0.26059166 -4.9366468e-13 0)
(0.26059166 -5.2536828e-13 0)
(0.26059166 -4.2365997e-13 0)
(0.26059166 -5.5566748e-13 0)
(0.26059166 -4.0579195e-13 0)
(0.26059166 -6.6029657e-13 0)