/*--------------------------------*- C++ -*----------------------------------*\
| =========                 |                                                 |
| \\      /  F ield         | OpenFOAM: The Open Source CFD Toolbox           |
|  \\    /   O peration     | Version:  2206                                  |
|   \\  /    A nd           | Website:  www.openfoam.com                      |
|    \\/     M anipulation  |                                                 |
\*---------------------------------------------------------------------------*/
FoamFile
{
    version     2.0;
    format      ascii;
    arch        "LSB;label=32;scalar=64";
    class       surfaceScalarField;
    location    "13";
    object      phi;
}
// * * * * * * * * * * * * * * * * * * * * * * * * * * * * * * * * * * * * * //

dimensions      [0 3 -1 0 0 0 0];

oriented        oriented;

internalField   nonuniform List<scalar> 
29650
(
6.0867647e-05
0.00020579915
3.2718169e-05
2.8149473e-05
2.4599021e-05
8.1191401e-06
2.0417849e-05
4.1811639e-06
1.8552178e-05
1.8656639e-06
1.73737e-05
1.178472e-06
1.6781661e-05
5.9203305e-07
1.6412315e-05
3.6934057e-07
1.6220821e-05
1.9148855e-07
1.6106686e-05
1.1413054e-07
1.6048258e-05
5.8425326e-08
1.6015474e-05
3.2782988e-08
1.5999542e-05
1.5932459e-08
1.5991376e-05
8.1663453e-09
1.5987889e-05
3.4878388e-09
1.598644e-05
1.4492872e-09
1.598609e-05
3.501943e-10
1.5986138e-05
-4.7609886e-11
1.5986349e-05
-2.1099092e-10
1.5986569e-05
-2.1990779e-10
1.5986762e-05
-1.9236272e-10
1.5986908e-05
-1.4623752e-10
1.5987014e-05
-1.0626968e-10
1.5987087e-05
-7.2900475e-11
1.5987136e-05
-4.8810311e-11
1.5987167e-05
-3.1595909e-11
1.5987187e-05
-2.0093621e-11
1.59872e-05
-1.247529e-11
1.5987208e-05
-7.6252353e-12
1.5987212e-05
-4.5648822e-12
1.5987215e-05
-2.6869576e-12
1.5987216e-05
-1.5482487e-12
1.5987217e-05
-8.7467583e-13
1.5987218e-05
-4.8233894e-13
1.5987218e-05
-2.586583e-13
1.5987218e-05
-1.333183e-13
1.5987218e-05
-6.5626635e-14
1.5987218e-05
-3.0326396e-14
1.5987218e-05
-1.3322129e-14
1.5987218e-05
-4.3397081e-15
1.5987218e-05
-1.3076553e-17
1.5987218e-05
2.3344398e-15
1.5987218e-05
2.4189566e-15
1.5987218e-05
2.8723144e-15
1.5987218e-05
1.9908028e-15
1.5987218e-05
2.1547659e-15
1.5987218e-05
1.6303144e-15
1.5987218e-05
1.7451143e-15
1.5987218e-05
7.3809451e-16
1.5987218e-05
9.444506e-16
1.5987218e-05
5.0162137e-16
1.5987218e-05
1.0454583e-15
1.5987218e-05
1.512069e-15
1.5987218e-05
2.343268e-15
1.5987218e-05
2.748529e-15
1.5987218e-05
2.2893236e-15
1.5987218e-05
1.900897e-15
1.5987218e-05
1.3756056e-15
1.5987218e-05
1.8933742e-15
1.5987218e-05
1.845233e-15
1.5987218e-05
2.3360244e-15
1.5987218e-05
1.4027588e-15
1.5987218e-05
1.6368392e-15
1.5987218e-05
5.3824632e-16
1.5987218e-05
1.2834228e-15
1.5987218e-05
1.5102414e-16
1.5987218e-05
4.8024613e-16
1.5987218e-05
-1.171099e-15
1.5987218e-05
-1.4200333e-15
1.5987218e-05
-2.4134128e-15
1.5987218e-05
-1.5350568e-15
1.5987218e-05
-1.7911592e-15
1.5987218e-05
-1.060681e-15
1.5987218e-05
-1.4843538e-15
1.5987218e-05
-9.8327782e-16
1.5987218e-05
-1.4640192e-15
1.5987218e-05
-1.0590443e-15
1.5987218e-05
-1.4909975e-15
1.5987218e-05
-1.2113783e-15
1.5987218e-05
-1.6027536e-15
1.5987218e-05
-1.44042e-15
1.5987218e-05
-1.7400163e-15
1.5987218e-05
-1.6475131e-15
1.5987218e-05
-1.8166344e-15
1.5987218e-05
-1.7876018e-15
1.5987218e-05
-1.8467984e-15
1.5987218e-05
-1.9215367e-15
1.5987218e-05
-1.8751215e-15
1.5987218e-05
-1.9691187e-15
1.5987218e-05
-1.6822391e-15
1.5987218e-05
-1.8655565e-15
1.5987218e-05
-1.6552188e-15
1.5987218e-05
-2.2227985e-15
1.5987218e-05
-2.0168663e-15
1.5987218e-05
-2.4232828e-15
1.5987218e-05
-1.5387001e-15
1.5987218e-05
-1.3510416e-15
1.5987218e-05
1.9192734e-16
1.5987218e-05
6.1345759e-17
1.5987218e-05
8.6535589e-16
1.5987218e-05
-5.1905675e-16
1.5987218e-05
-3.7010637e-16
1.5987218e-05
-1.5718807e-15
1.5987218e-05
-6.8518893e-16
1.5987218e-05
-1.2424379e-15
1.5987218e-05
1.3273138e-16
1.5987218e-05
-7.1301812e-16
1.5987218e-05
3.9073404e-16
1.5987218e-05
-7.4195056e-16
1.5987218e-05
3.6989279e-16
1.5987218e-05
-2.0611393e-17
1.5987218e-05
1.6210765e-15
1.5987218e-05
1.8944688e-15
1.5987218e-05
2.9258704e-15
1.5987218e-05
1.4571436e-15
1.5987218e-05
1.8212933e-15
1.5987218e-05
7.8789859e-16
1.5987218e-05
1.4247644e-15
1.5987218e-05
7.7798399e-16
1.5987218e-05
1.4867332e-15
1.5987218e-05
9.7884199e-16
1.5987218e-05
1.6105589e-15
1.5987218e-05
1.1654605e-15
1.5987218e-05
1.6889684e-15
1.5987218e-05
1.3276267e-15
1.5987218e-05
1.7721812e-15
1.5987218e-05
1.4991727e-15
1.5987218e-05
1.8508733e-15
1.5987218e-05
1.6531186e-15
1.5987218e-05
1.9050629e-15
1.5987218e-05
1.7838423e-15
1.5987218e-05
1.9337197e-15
1.5987218e-05
1.8878946e-15
1.5987218e-05
1.9354698e-15
1.5987218e-05
1.9860786e-15
1.5987218e-05
1.9404983e-15
1.5987218e-05
2.0795822e-15
1.5987218e-05
1.9115898e-15
1.5987218e-05
2.1192235e-15
1.5987218e-05
1.8171506e-15
1.5987218e-05
2.0869349e-15
1.5987218e-05
1.6527426e-15
1.5987218e-05
1.9811e-15
1.5987218e-05
1.4050247e-15
1.5987218e-05
1.7896364e-15
1.5987218e-05
1.1305405e-15
1.5987218e-05
1.5833065e-15
1.5987218e-05
8.0203873e-16
1.5987218e-05
1.2231702e-15
1.5987218e-05
3.8836826e-16
1.5987218e-05
1.0885998e-15
1.5987218e-05
5.8817369e-16
1.5987218e-05
1.5686577e-15
1.5987218e-05
9.7901368e-16
1.5987218e-05
1.4650539e-15
1.5987218e-05
2.3569899e-16
1.5987218e-05
4.3758091e-16
1.5987218e-05
-7.7019068e-16
1.5987218e-05
-3.9661989e-16
1.5987218e-05
-1.3941039e-15
1.5987218e-05
-1.2883872e-15
1.5987218e-05
-2.1842219e-15
1.5987218e-05
-2.3000504e-15
1.5987218e-05
-2.7635616e-15
1.5987218e-05
-2.2733616e-15
1.5987218e-05
-2.2333347e-15
1.5987218e-05
-1.9007482e-15
1.5987218e-05
-1.9070639e-15
1.5987218e-05
-2.0420475e-15
1.5987218e-05
-2.2154873e-15
1.5987218e-05
-2.4085215e-15
1.5987218e-05
-2.1936848e-15
1.5987218e-05
-1.9424624e-15
1.5987218e-05
-1.250167e-15
1.5987218e-05
-1.0682355e-15
1.5987218e-05
-4.9830433e-16
1.5987218e-05
-7.4846708e-16
1.5987218e-05
-3.1666298e-16
1.5987218e-05
-7.736625e-16
1.5987218e-05
-2.529092e-16
1.5987218e-05
-7.2326556e-16
1.5987218e-05
-2.4042128e-17
1.5987218e-05
-5.6451206e-16
1.5987218e-05
2.8626693e-16
1.5987218e-05
-2.4483418e-16
1.5987218e-05
6.9606436e-16
1.5987218e-05
4.3396125e-17
1.5987218e-05
1.0076204e-15
1.5987218e-05
3.6737609e-16
1.5987218e-05
1.373591e-15
1.5987218e-05
6.7676367e-16
1.5987218e-05
1.6084457e-15
1.5987218e-05
8.8804333e-16
1.5987218e-05
1.848377e-15
1.5987218e-05
1.4962745e-15
1.5987218e-05
2.6400515e-15
1.5987218e-05
2.6294012e-15
1.5987218e-05
3.5011166e-15
1.5987218e-05
3.7107382e-15
1.5987218e-05
3.916962e-15
1.5987218e-05
3.7456286e-15
1.5987218e-05
2.7491993e-15
1.5987218e-05
2.1409551e-15
1.5987218e-05
6.3210209e-16
1.5987218e-05
7.6506983e-16
1.5987218e-05
-5.442713e-16
1.5987218e-05
5.8036045e-17
1.5987218e-05
-1.0974819e-15
1.5987218e-05
-2.4018749e-16
1.5987218e-05
-1.2815016e-15
1.5987218e-05
-6.190364e-16
1.5987218e-05
-1.846319e-15
1.5987218e-05
-1.2980452e-15
1.5987218e-05
-1.9518694e-15
1.5987218e-05
-7.2551479e-16
1.5987218e-05
-8.3975873e-16
1.5987218e-05
1.2899935e-16
1.5987218e-05
-6.1087823e-16
1.5987218e-05
-4.4840021e-16
1.5987218e-05
-1.4685868e-15
1.5987218e-05
-1.5990894e-15
1.5987218e-05
-2.2522095e-15
1.5987218e-05
-2.4566578e-15
1.5987218e-05
-2.5554725e-15
1.5987218e-05
-2.6429224e-15
1.5987218e-05
-2.3042543e-15
1.5987218e-05
-2.3051797e-15
1.5987218e-05
-1.3905142e-15
1.5987218e-05
-1.311501e-15
1.5987218e-05
-3.0920551e-16
1.5987218e-05
-4.4660035e-16
1.5987218e-05
4.9294421e-16
1.5987218e-05
3.6191425e-16
1.5987218e-05
1.2850209e-15
1.5987218e-05
9.8439832e-16
1.5987218e-05
1.4898309e-15
1.5987218e-05
7.4816493e-16
1.5987218e-05
7.3900787e-16
1.5987218e-05
-1.6624874e-16
1.5987218e-05
-2.158879e-16
1.5987218e-05
-6.440632e-16
1.5987218e-05
-1.7850146e-16
1.5987218e-05
3.7594027e-17
1.5987218e-05
7.8416342e-16
1.5987218e-05
1.0716481e-15
1.5987218e-05
1.5585327e-15
1.5987218e-05
1.7226175e-15
1.5987218e-05
1.811693e-15
1.5987218e-05
1.9337744e-15
1.5987218e-05
1.7240918e-15
1.5987218e-05
1.7833384e-15
1.5987218e-05
1.3795201e-15
1.5987218e-05
1.3780691e-15
1.5987218e-05
4.8372095e-16
1.5987218e-05
1.5848646e-16
1.5987218e-05
-9.3945299e-16
1.5987218e-05
-1.0105694e-15
1.5987218e-05
-1.4791368e-15
1.5987218e-05
-9.7045843e-16
1.5987218e-05
-8.8706066e-16
1.5987218e-05
-3.0468734e-16
1.5987218e-05
-2.4593233e-16
1.5987218e-05
6.3104626e-17
1.5987218e-05
3.7401229e-17
1.5987218e-05
7.7502039e-17
1.5987218e-05
-9.473682e-18
1.5987218e-05
-2.2181475e-16
1.5987218e-05
-2.0380484e-16
1.5987218e-05
-3.2659154e-16
1.5987218e-05
8.8725557e-17
1.5987218e-05
-3.9900665e-17
1.5987218e-05
3.9517693e-16
1.5987218e-05
-4.6426243e-17
1.5987218e-05
3.4364649e-16
1.5987218e-05
9.0647642e-17
1.5987218e-05
4.9960482e-16
1.5987218e-05
6.6424359e-17
1.5987218e-05
3.450861e-16
1.5987218e-05
6.1525074e-17
1.5987218e-05
3.1217142e-16
1.5987218e-05
2.8571743e-17
1.5987218e-05
-8.3585523e-17
1.5987218e-05
-4.6754548e-16
1.5987218e-05
-5.919022e-16
1.5987218e-05
-4.1639783e-16
1.5987218e-05
-1.2631427e-16
1.5987218e-05
3.5831832e-16
1.5987218e-05
5.9012712e-16
1.5987218e-05
8.7615817e-16
1.5987218e-05
8.3409159e-16
1.5987218e-05
9.5295481e-16
1.5987218e-05
7.667891e-16
1.5987218e-05
9.0734488e-16
1.5987218e-05
7.5318321e-16
1.5987218e-05
8.0432215e-16
1.5987218e-05
4.4563413e-16
1.5987218e-05
6.4489766e-16
1.5987218e-05
8.2994744e-16
1.5987218e-05
1.1652886e-15
4.8910544e-16
0.00014027132
0.00033219463
9.2549244e-05
7.5871538e-05
7.0338073e-05
3.0330298e-05
5.9620315e-05
1.489891e-05
5.4019643e-05
7.4663267e-06
5.0795344e-05
4.4027641e-06
4.901105e-05
2.3763207e-06
4.7964745e-05
1.4156384e-06
4.7384385e-05
7.718418e-07
4.7052234e-05
4.4627464e-07
4.6872682e-05
2.37972e-07
4.6774531e-05
1.3093204e-07
4.6724187e-05
6.6275369e-08
4.6698685e-05
3.366825e-08
4.6686924e-05
1.5249047e-08
4.6681892e-05
6.4819673e-09
4.6680252e-05
1.9915842e-09
4.6680058e-05
1.4666946e-10
4.6680445e-05
-5.9745373e-10
4.6680961e-05
-7.3636077e-10
4.6681443e-05
-6.7378763e-10
4.6681826e-05
-5.2963346e-10
4.668211e-05
-3.903891e-10
4.6682309e-05
-2.7194621e-10
4.6682444e-05
-1.8356001e-10
4.6682532e-05
-1.1997239e-10
4.6682589e-05
-7.6755757e-11
4.6682624e-05
-4.7993559e-11
4.6682646e-05
-2.9485221e-11
4.6682659e-05
-1.776103e-11
4.6682667e-05
-1.0512172e-11
4.6682672e-05
-6.0985922e-12
4.6682674e-05
-3.4689689e-12
4.6682676e-05
-1.9287635e-12
4.6682676e-05
-1.0444265e-12
4.6682677e-05
-5.4609426e-13
4.6682677e-05
-2.7305632e-13
4.6682677e-05
-1.2886185e-13
4.6682677e-05
-5.6487018e-14
4.6682677e-05
-1.9702756e-14
4.6682677e-05
-1.8041382e-15
4.6682677e-05
6.3458129e-15
4.6682677e-05
8.3348199e-15
4.6682677e-05
8.7218198e-15
4.6682677e-05
6.3327124e-15
4.6682677e-05
5.4762159e-15
4.6682677e-05
3.7141296e-15
4.6682677e-05
3.1830307e-15
4.6682677e-05
1.2629086e-15
4.6682677e-05
1.3567586e-15
4.6682677e-05
6.4990729e-16
4.6682677e-05
1.4720306e-15
4.6682677e-05
2.5068078e-15
4.6682677e-05
4.2623332e-15
4.6682677e-05
5.022212e-15
4.6682677e-05
4.5376389e-15
4.6682677e-05
3.6973755e-15
4.6682677e-05
3.0985007e-15
4.6682677e-05
3.8122335e-15
4.6682677e-05
3.8303779e-15
4.6682677e-05
3.9571593e-15
4.6682677e-05
2.143467e-15
4.6682677e-05
1.6168026e-15
4.6682677e-05
-1.6858209e-16
4.6682677e-05
6.3087825e-16
4.6682677e-05
-7.8921276e-16
4.6682677e-05
-2.91723e-16
4.6682677e-05
-2.4923427e-15
4.6682677e-05
-3.0413236e-15
4.6682677e-05
-4.4021536e-15
4.6682677e-05
-3.4476342e-15
4.6682677e-05
-3.6763738e-15
4.6682677e-05
-2.7326218e-15
4.6682677e-05
-3.1515834e-15
4.6682677e-05
-2.4803684e-15
4.6682677e-05
-2.9802035e-15
4.6682677e-05
-2.4559019e-15
4.6682677e-05
-2.8965091e-15
4.6682677e-05
-2.6205537e-15
4.6682677e-05
-3.0866583e-15
4.6682677e-05
-3.0510554e-15
4.6682677e-05
-3.4302479e-15
4.6682677e-05
-3.4896372e-15
4.6682677e-05
-3.6574752e-15
4.6682677e-05
-3.7548976e-15
4.6682677e-05
-3.7475391e-15
4.6682677e-05
-3.979738e-15
4.6682677e-05
-3.8248341e-15
4.6682677e-05
-3.9686672e-15
4.6682677e-05
-3.3741841e-15
4.6682677e-05
-3.6990084e-15
4.6682677e-05
-3.4988639e-15
4.6682677e-05
-4.6758799e-15
4.6682677e-05
-4.4965046e-15
4.6682677e-05
-4.9379054e-15
4.6682677e-05
-3.1013166e-15
4.6682677e-05
-1.9357009e-15
4.6682677e-05
1.2053188e-15
4.6682677e-05
1.422634e-15
4.6682677e-05
2.5218882e-15
4.6682677e-05
-3.7989512e-16
4.6682677e-05
-7.558768e-16
4.6682677e-05
-2.8182807e-15
4.6682677e-05
-1.4124465e-15
4.6682677e-05
-1.6628979e-15
4.6682677e-05
8.3208651e-16
4.6682677e-05
-3.6766651e-17
4.6682677e-05
1.7133485e-15
4.6682677e-05
3.9783913e-17
4.6682677e-05
1.4627933e-15
4.6682677e-05
8.5471678e-16
4.6682677e-05
3.1783972e-15
4.6682677e-05
3.673293e-15
4.6682677e-05
5.308323e-15
4.6682677e-05
3.1598691e-15
4.6682677e-05
3.8723706e-15
4.6682677e-05
2.1555451e-15
4.6682677e-05
3.1363539e-15
4.6682677e-05
2.0410231e-15
4.6682677e-05
3.1315314e-15
4.6682677e-05
2.3351136e-15
4.6682677e-05
3.3343118e-15
4.6682677e-05
2.6465358e-15
4.6682677e-05
3.475584e-15
4.6682677e-05
2.9151775e-15
4.6682677e-05
3.6504073e-15
4.6682677e-05
3.2257754e-15
4.6682677e-05
3.8405885e-15
4.6682677e-05
3.5036199e-15
4.6682677e-05
3.9783727e-15
4.6682677e-05
3.7274515e-15
4.6682677e-05
4.0587582e-15
4.6682677e-05
3.888521e-15
4.6682677e-05
4.0891332e-15
4.6682677e-05
4.0593558e-15
4.6682677e-05
4.160808e-15
4.6682677e-05
4.2478684e-15
4.6682677e-05
4.1752576e-15
4.6682677e-05
4.3242856e-15
4.6682677e-05
4.0544342e-15
4.6682677e-05
4.2629863e-15
4.6682677e-05
3.8069881e-15
4.6682677e-05
4.0747829e-15
4.6682677e-05
3.3982318e-15
4.6682677e-05
3.7231089e-15
4.6682677e-05
2.9468486e-15
4.6682677e-05
3.3460094e-15
4.6682677e-05
2.3335968e-15
4.6682677e-05
2.574545e-15
4.6682677e-05
1.5237044e-15
4.6682677e-05
2.4775666e-15
4.6682677e-05
2.2404404e-15
4.6682677e-05
3.7100531e-15
4.6682677e-05
3.0798555e-15
4.6682677e-05
3.1105225e-15
4.6682677e-05
9.7735858e-16
4.6682677e-05
3.9775134e-16
4.6682677e-05
-1.5839434e-15
4.6682677e-05
-1.4881531e-15
4.6682677e-05
-2.9515687e-15
4.6682677e-05
-2.9431441e-15
4.6682677e-05
-4.2263725e-15
4.6682677e-05
-4.5344171e-15
4.6682677e-05
-5.2252611e-15
4.6682677e-05
-4.6312368e-15
4.6682677e-05
-4.4854909e-15
4.6682677e-05
-3.8987349e-15
4.6682677e-05
-3.9481097e-15
4.6682677e-05
-4.334308e-15
4.6682677e-05
-4.8206437e-15
4.6682677e-05
-5.0483607e-15
4.6682677e-05
-4.5149081e-15
4.6682677e-05
-3.4092298e-15
4.6682677e-05
-1.8945212e-15
4.6682677e-05
-9.4847443e-16
4.6682677e-05
9.8509481e-17
4.6682677e-05
7.8241212e-17
4.6682677e-05
6.7545949e-16
4.6682677e-05
2.44459e-16
4.6682677e-05
8.945528e-16
4.6682677e-05
3.9501786e-16
4.6682677e-05
1.2642331e-15
4.6682677e-05
6.1308057e-16
4.6682677e-05
1.6679779e-15
4.6682677e-05
1.0781215e-15
4.6682677e-05
2.2416161e-15
4.6682677e-05
1.4723026e-15
4.6682677e-05
2.6628127e-15
4.6682677e-05
1.970541e-15
4.6682677e-05
3.2238046e-15
4.6682677e-05
2.3671244e-15
4.6682677e-05
3.3273541e-15
4.6682677e-05
2.2801103e-15
4.6682677e-05
3.3278832e-15
4.6682677e-05
3.1160428e-15
4.6682677e-05
4.7006757e-15
4.6682677e-05
4.8699623e-15
4.6682677e-05
5.9044541e-15
4.6682677e-05
6.0949663e-15
4.6682677e-05
6.2249154e-15
4.6682677e-05
5.6976563e-15
4.6682677e-05
3.8318552e-15
4.6682677e-05
2.2831701e-15
4.6682677e-05
-2.0517705e-16
4.6682677e-05
-3.4911513e-16
4.6682677e-05
-2.0453875e-15
4.6682677e-05
-1.2809278e-15
4.6682677e-05
-2.5555936e-15
4.6682677e-05
-1.2750865e-15
4.6682677e-05
-2.5170914e-15
4.6682677e-05
-1.899765e-15
4.6682677e-05
-3.9061442e-15
4.6682677e-05
-3.47141e-15
4.6682677e-05
-3.9973773e-15
4.6682677e-05
-1.628789e-15
4.6682677e-05
-9.9223759e-16
4.6682677e-05
6.8813485e-16
4.6682677e-05
-3.4558823e-16
4.6682677e-05
-5.1227548e-16
4.6682677e-05
-2.2364726e-15
4.6682677e-05
-2.7809469e-15
4.6682677e-05
-3.7837911e-15
4.6682677e-05
-4.2045247e-15
4.6682677e-05
-4.4376113e-15
4.6682677e-05
-4.7274172e-15
4.6682677e-05
-4.4047218e-15
4.6682677e-05
-4.2137795e-15
4.6682677e-05
-2.6617278e-15
4.6682677e-05
-1.9838141e-15
4.6682677e-05
-3.8190165e-16
4.6682677e-05
-1.7719363e-16
4.6682677e-05
1.3080436e-15
4.6682677e-05
1.5865026e-15
4.6682677e-05
3.0450246e-15
4.6682677e-05
2.7455752e-15
4.6682677e-05
3.1634145e-15
4.6682677e-05
1.65072e-15
4.6682677e-05
9.3806969e-16
4.6682677e-05
-9.7354071e-16
4.6682677e-05
-1.6120829e-15
4.6682677e-05
-2.2443401e-15
4.6682677e-05
-1.4484671e-15
4.6682677e-05
-4.9592761e-16
4.6682677e-05
9.8497955e-16
4.6682677e-05
1.9004667e-15
4.6682677e-05
2.8177127e-15
4.6682677e-05
3.1778309e-15
4.6682677e-05
3.3281862e-15
4.6682677e-05
3.5281484e-15
4.6682677e-05
3.3799025e-15
4.6682677e-05
3.6487289e-15
4.6682677e-05
3.2598662e-15
4.6682677e-05
3.0664481e-15
4.6682677e-05
1.3803292e-15
4.6682677e-05
9.2849091e-17
4.6682677e-05
-2.0242398e-15
4.6682677e-05
-2.5354864e-15
4.6682677e-05
-2.9876483e-15
4.6682677e-05
-1.8738524e-15
4.6682677e-05
-1.1586707e-15
4.6682677e-05
1.1255962e-16
4.6682677e-05
5.3830418e-16
4.6682677e-05
1.1775085e-15
4.6682677e-05
1.2690648e-15
4.6682677e-05
1.3623001e-15
4.6682677e-05
1.164511e-15
4.6682677e-05
7.5418231e-16
4.6682677e-05
7.4375056e-16
4.6682677e-05
7.3732808e-16
4.6682677e-05
1.540699e-15
4.6682677e-05
1.5294848e-15
4.6682677e-05
1.9429234e-15
4.6682677e-05
9.0629318e-16
4.6682677e-05
8.7912513e-16
4.6682677e-05
-3.7265318e-18
4.6682677e-05
1.783851e-16
4.6682677e-05
-7.0427483e-16
4.6682677e-05
-5.0023916e-16
4.6682677e-05
-9.0466699e-16
4.6682677e-05
-6.0191612e-16
4.6682677e-05
-1.1181672e-15
4.6682677e-05
-1.5258702e-15
4.6682677e-05
-2.2922441e-15
4.6682677e-05
-2.4500746e-15
4.6682677e-05
-1.7715594e-15
4.6682677e-05
-8.0476751e-16
4.6682677e-05
5.172417e-16
4.6682677e-05
1.3017695e-15
4.6682677e-05
1.9744608e-15
4.6682677e-05
2.1127801e-15
4.6682677e-05
2.2916609e-15
4.6682677e-05
2.0968079e-15
4.6682677e-05
2.2899034e-15
4.6682677e-05
2.1621626e-15
4.6682677e-05
2.0565416e-15
4.6682677e-05
1.4286648e-15
4.6682677e-05
1.7694903e-15
4.6682677e-05
2.5511153e-15
4.6682677e-05
3.0632322e-15
1.3848944e-15
0.00019469214
0.00040416928
0.00014360962
0.00012695406
0.00011230147
6.1638441e-05
9.6619295e-05
3.0581091e-05
8.7762221e-05
1.6323401e-05
8.2755406e-05
9.4095796e-06
7.9871701e-05
5.2600261e-06
7.8206034e-05
3.0813068e-06
7.7256668e-05
1.7212078e-06
7.6718195e-05
9.8474873e-07
7.6420463e-05
5.3570447e-07
7.6258218e-05
2.9317657e-07
7.6172993e-05
1.5150052e-07
7.61296e-05
7.706125e-08
7.6108851e-05
3.5997765e-08
7.6099695e-05
1.5637531e-08
7.6096324e-05
5.3624579e-09
7.6095587e-05
8.835028e-10
7.6095937e-05
-9.4663633e-10
7.6096611e-05
-1.4109341e-09
7.609729e-05
-1.3530949e-09
7.6097854e-05
-1.0930964e-09
7.609828e-05
-8.1652918e-10
7.6098584e-05
-5.7545523e-10
7.6098791e-05
-3.9120696e-10
7.6098929e-05
-2.5752731e-10
7.6099018e-05
-1.6560213e-10
7.6099074e-05
-1.0409509e-10
7.6099108e-05
-6.4216514e-11
7.609913e-05
-3.8856581e-11
7.6099142e-05
-2.3094544e-11
7.609915e-05
-1.3464301e-11
7.6099154e-05
-7.6980919e-12
7.6099156e-05
-4.3055539e-12
7.6099157e-05
-2.3482514e-12
7.6099158e-05
-1.2408091e-12
7.6099158e-05
-6.3009006e-13
7.6099159e-05
-3.0319056e-13
7.6099159e-05
-1.3531743e-13
7.6099159e-05
-5.0338785e-14
7.6099159e-05
-1.0110815e-14
7.6099159e-05
7.7471328e-15
7.6099159e-05
1.2449498e-14
7.6099159e-05
1.3409288e-14
7.6099159e-05
1.0162385e-14
7.6099159e-05
8.8257151e-15
7.6099159e-05
6.2274974e-15
7.6099159e-05
5.410381e-15
7.6099159e-05
2.7570632e-15
7.6099159e-05
2.773675e-15
7.6099159e-05
1.6693597e-15
7.6099159e-05
2.6281009e-15
7.6099159e-05
3.5806486e-15
7.6099159e-05
5.3295996e-15
7.6099159e-05
6.0656045e-15
7.6099159e-05
5.2584891e-15
7.6099159e-05
4.3246847e-15
7.6099159e-05
3.3134042e-15
7.6099159e-05
4.202231e-15
7.6099159e-05
3.8836554e-15
7.6099159e-05
4.4315285e-15
7.6099159e-05
2.411948e-15
7.6099159e-05
2.7301382e-15
7.6099159e-05
8.4238726e-16
7.6099159e-05
2.5603988e-15
7.6099159e-05
7.0505293e-16
7.6099159e-05
1.463557e-15
7.6099159e-05
-1.7774491e-15
7.6099159e-05
-2.6191346e-15
7.6099159e-05
-4.9003757e-15
7.6099159e-05
-3.5840938e-15
7.6099159e-05
-4.2250235e-15
7.6099159e-05
-2.8385601e-15
7.6099159e-05
-3.5628827e-15
7.6099159e-05
-2.5124602e-15
7.6099159e-05
-3.3232233e-15
7.6099159e-05
-2.4809854e-15
7.6099159e-05
-3.2203111e-15
7.6099159e-05
-2.6886216e-15
7.6099159e-05
-3.4184986e-15
7.6099159e-05
-3.1883961e-15
7.6099159e-05
-3.7885972e-15
7.6099159e-05
-3.7167512e-15
7.6099159e-05
-4.0515857e-15
7.6099159e-05
-4.0760543e-15
7.6099159e-05
-4.1672214e-15
7.6099159e-05
-4.3711384e-15
7.6099159e-05
-4.2282147e-15
7.6099159e-05
-4.4066122e-15
7.6099159e-05
-3.7815305e-15
7.6099159e-05
-4.2383237e-15
7.6099159e-05
-3.9214044e-15
7.6099159e-05
-5.193579e-15
7.6099159e-05
-4.7162992e-15
7.6099159e-05
-5.2602126e-15
7.6099159e-05
-3.0687819e-15
7.6099159e-05
-2.2112251e-15
7.6099159e-05
1.1865615e-15
7.6099159e-05
9.2461297e-16
7.6099159e-05
2.3550875e-15
7.6099159e-05
-8.4861119e-16
7.6099159e-05
-6.4524342e-16
7.6099159e-05
-3.0863464e-15
7.6099159e-05
-1.2032203e-15
7.6099159e-05
-2.1505576e-15
7.6099159e-05
6.2747722e-16
7.6099159e-05
-1.1338945e-15
7.6099159e-05
8.7175756e-16
7.6099159e-05
-1.6385925e-15
7.6099159e-05
3.1306195e-16
7.6099159e-05
-5.3501431e-16
7.6099159e-05
2.7874057e-15
7.6099159e-05
3.4829986e-15
7.6099159e-05
5.9513821e-15
7.6099159e-05
3.4025251e-15
7.6099159e-05
4.4474905e-15
7.6099159e-05
2.2564552e-15
7.6099159e-05
3.534791e-15
7.6099159e-05
2.0524056e-15
7.6099159e-05
3.4653062e-15
7.6099159e-05
2.3473484e-15
7.6099159e-05
3.6535784e-15
7.6099159e-05
2.7050202e-15
7.6099159e-05
3.8095848e-15
7.6099159e-05
3.0419241e-15
7.6099159e-05
3.999658e-15
7.6099159e-05
3.4144541e-15
7.6099159e-05
4.1948828e-15
7.6099159e-05
3.7471677e-15
7.6099159e-05
4.3327918e-15
7.6099159e-05
4.0254837e-15
7.6099159e-05
4.4145878e-15
7.6099159e-05
4.24858e-15
7.6099159e-05
4.4551281e-15
7.6099159e-05
4.490029e-15
7.6099159e-05
4.5363459e-15
7.6099159e-05
4.7421633e-15
7.6099159e-05
4.5473578e-15
7.6099159e-05
4.8711668e-15
7.6099159e-05
4.4076216e-15
7.6099159e-05
4.8410444e-15
7.6099159e-05
4.1149748e-15
7.6099159e-05
4.6464274e-15
7.6099159e-05
3.6254585e-15
7.6099159e-05
4.2477357e-15
7.6099159e-05
3.0512125e-15
7.6099159e-05
3.7691628e-15
7.6099159e-05
2.2833076e-15
7.6099159e-05
2.9161905e-15
7.6099159e-05
1.414438e-15
7.6099159e-05
2.8050459e-15
7.6099159e-05
2.094427e-15
7.6099159e-05
3.9910823e-15
7.6099159e-05
2.8683371e-15
7.6099159e-05
3.4371133e-15
7.6099159e-05
9.4769695e-16
7.6099159e-05
1.080272e-15
7.6099159e-05
-1.1692004e-15
7.6099159e-05
-5.0555755e-16
7.6099159e-05
-2.4111919e-15
7.6099159e-05
-2.3673683e-15
7.6099159e-05
-4.315415e-15
7.6099159e-05
-4.8302252e-15
7.6099159e-05
-5.9485807e-15
7.6099159e-05
-5.1861347e-15
7.6099159e-05
-5.131128e-15
7.6099159e-05
-4.4504863e-15
7.6099159e-05
-4.516566e-15
7.6099159e-05
-4.8653762e-15
7.6099159e-05
-5.2449565e-15
7.6099159e-05
-5.4329394e-15
7.6099159e-05
-4.752288e-15
7.6099159e-05
-3.7826513e-15
7.6099159e-05
-2.1999179e-15
7.6099159e-05
-1.550103e-15
7.6099159e-05
-3.964946e-16
7.6099159e-05
-7.4817761e-16
7.6099159e-05
5.9610848e-17
7.6099159e-05
-7.2801694e-16
7.6099159e-05
2.2975996e-16
7.6099159e-05
-6.1996336e-16
7.6099159e-05
6.5983205e-16
7.6099159e-05
-3.4055378e-16
7.6099159e-05
1.2348253e-15
7.6099159e-05
2.9428215e-16
7.6099159e-05
2.0674487e-15
7.6099159e-05
9.4618175e-16
7.6099159e-05
2.8192455e-15
7.6099159e-05
1.7462148e-15
7.6099159e-05
3.6194959e-15
7.6099159e-05
2.2627659e-15
7.6099159e-05
3.7644407e-15
7.6099159e-05
2.1975005e-15
7.6099159e-05
3.7115155e-15
7.6099159e-05
2.8985321e-15
7.6099159e-05
4.7274492e-15
7.6099159e-05
4.4030857e-15
7.6099159e-05
5.6244595e-15
7.6099159e-05
5.7388922e-15
7.6099159e-05
5.918294e-15
7.6099159e-05
5.418684e-15
7.6099159e-05
3.3735655e-15
7.6099159e-05
2.1567429e-15
7.6099159e-05
-5.5749093e-16
7.6099159e-05
-6.5689723e-18
7.6099159e-05
-2.0701344e-15
7.6099159e-05
-5.8766598e-16
7.6099159e-05
-2.4261789e-15
7.6099159e-05
-6.0803244e-16
7.6099159e-05
-2.5497608e-15
7.6099159e-05
-1.4725565e-15
7.6099159e-05
-4.0536337e-15
7.6099159e-05
-3.1270096e-15
7.6099159e-05
-4.1652579e-15
7.6099159e-05
-1.4551275e-15
7.6099159e-05
-1.3912857e-15
7.6099159e-05
5.8464796e-16
7.6099159e-05
-8.5270918e-16
7.6099159e-05
-5.6988133e-16
7.6099159e-05
-2.4207376e-15
7.6099159e-05
-2.5433197e-15
7.6099159e-05
-3.5901841e-15
7.6099159e-05
-3.9088911e-15
7.6099159e-05
-4.1393625e-15
7.6099159e-05
-4.4771145e-15
7.6099159e-05
-4.0023885e-15
7.6099159e-05
-4.066749e-15
7.6099159e-05
-2.3546624e-15
7.6099159e-05
-2.149398e-15
7.6099159e-05
-3.30759e-16
7.6099159e-05
-5.1931166e-16
7.6099159e-05
1.3178559e-15
7.6099159e-05
1.2281417e-15
7.6099159e-05
3.0050951e-15
7.6099159e-05
2.353455e-15
7.6099159e-05
3.0892998e-15
7.6099159e-05
1.3280589e-15
7.6099159e-05
9.8671566e-16
7.6099159e-05
-1.027026e-15
7.6099159e-05
-1.3000685e-15
7.6099159e-05
-2.0389008e-15
7.6099159e-05
-1.0086558e-15
7.6099159e-05
-2.7136542e-16
7.6099159e-05
1.2747821e-15
7.6099159e-05
1.9583058e-15
7.6099159e-05
2.8844096e-15
7.6099159e-05
3.1826184e-15
7.6099159e-05
3.3426627e-15
7.6099159e-05
3.6278225e-15
7.6099159e-05
3.3461494e-15
7.6099159e-05
3.602418e-15
7.6099159e-05
2.9135524e-15
7.6099159e-05
2.8133339e-15
7.6099159e-05
8.9845228e-16
7.6099159e-05
4.9880104e-18
7.6099159e-05
-2.1874263e-15
7.6099159e-05
-2.2837021e-15
7.6099159e-05
-2.8807914e-15
7.6099159e-05
-1.5729841e-15
7.6099159e-05
-1.1030934e-15
7.6099159e-05
2.2323247e-16
7.6099159e-05
4.6259104e-16
7.6099159e-05
1.137079e-15
7.6099159e-05
1.1431616e-15
7.6099159e-05
1.2408171e-15
7.6099159e-05
1.0506065e-15
7.6099159e-05
6.2141543e-16
7.6099159e-05
7.1027977e-16
7.6099159e-05
5.8016367e-16
7.6099159e-05
1.4472236e-15
7.6099159e-05
1.0973584e-15
7.6099159e-05
1.6025644e-15
7.6099159e-05
2.9248984e-16
7.6099159e-05
5.9311396e-16
7.6099159e-05
-3.0279955e-16
7.6099159e-05
2.5719161e-16
7.6099159e-05
-7.7024546e-16
7.6099159e-05
-3.2884444e-16
7.6099159e-05
-9.2170849e-16
7.6099159e-05
-4.8859953e-16
7.6099159e-05
-1.1142619e-15
7.6099159e-05
-1.3995897e-15
7.6099159e-05
-2.1146439e-15
7.6099159e-05
-2.1506652e-15
7.6099159e-05
-1.422471e-15
7.6099159e-05
-4.8518783e-16
7.6099159e-05
8.0791053e-16
7.6099159e-05
1.4610625e-15
7.6099159e-05
2.1450696e-15
7.6099159e-05
2.1648838e-15
7.6099159e-05
2.4165931e-15
7.6099159e-05
2.11885e-15
7.6099159e-05
2.4026499e-15
7.6099159e-05
2.1420928e-15
7.6099159e-05
2.14323e-15
7.6099159e-05
1.4408855e-15
7.6099159e-05
1.9331227e-15
7.6099159e-05
2.5062275e-15
7.6099159e-05
2.9646409e-15
1.1774015e-15
0.00023312986
0.00043770622
0.00018548527
0.00017459866
0.00015018421
9.6939499e-05
0.0001310242
4.9741106e-05
0.00011965162
2.7695984e-05
0.0001131446
1.5916605e-05
0.00010931814
9.0864914e-06
0.00010710183
5.2976225e-06
0.00010582149
3.0015501e-06
0.00010509347
1.712781e-06
0.00010468612
9.4305222e-07
0.00010446306
5.1623538e-07
0.00010434425
2.7031432e-07
0.00010428311
1.3819573e-07
0.00010425319
6.5916323e-08
0.00010423959
2.923615e-08
0.0001042342
1.0753477e-08
0.00010423268
2.4051012e-09
0.00010423281
-1.0809763e-09
0.00010423352
-2.1168469e-09
0.00010423431
-2.1448689e-09
0.000104235
-1.7800356e-09
0.00010423553
-1.3484969e-09
0.00010423592
-9.6061117e-10
0.00010423618
-6.5772135e-10
0.00010423636
-4.3574676e-10
0.00010423648
-2.8157436e-10
0.00010423655
-1.7782213e-10
0.0001042366
-1.1013217e-10
0.00010423662
-6.6909445e-11
0.00010423664
-3.9922893e-11
0.00010423665
-2.3375304e-11
0.00010423666
-1.3424768e-11
0.00010423666
-7.5471654e-12
0.00010423666
-4.1414163e-12
0.00010423666
-2.2066278e-12
0.00010423666
-1.1331116e-12
0.00010423666
-5.5331993e-13
0.00010423666
-2.5088312e-13
0.00010423666
-9.7378094e-14
0.00010423666
-2.4639173e-14
0.00010423666
7.1056838e-15
0.00010423666
1.6764815e-14
0.00010423666
1.8614638e-14
0.00010423666
1.4690185e-14
0.00010423666
1.2609953e-14
0.00010423666
9.0462398e-15
0.00010423666
7.6431198e-15
0.00010423666
4.4552647e-15
0.00010423666
4.4579345e-15
0.00010423666
3.4781851e-15
0.00010423666
4.6682841e-15
0.00010423666
5.408152e-15
0.00010423666
6.7981546e-15
0.00010423666
6.8104606e-15
0.00010423666
5.6639332e-15
0.00010423666
4.318547e-15
0.00010423666
3.2400059e-15
0.00010423666
3.7156898e-15
0.00010423666
3.186416e-15
0.00010423666
3.3907259e-15
0.00010423666
1.7585056e-15
0.00010423666
2.7613771e-15
0.00010423666
1.8859547e-15
0.00010423666
4.3240701e-15
0.00010423666
2.8077272e-15
0.00010423666
3.4161846e-15
0.00010423666
-3.1003151e-16
0.00010423666
-1.8633297e-15
0.00010423666
-4.6190321e-15
0.00010423666
-3.7364453e-15
0.00010423666
-4.4089855e-15
0.00010423666
-3.0985508e-15
0.00010423666
-3.6976446e-15
0.00010423666
-2.6299173e-15
0.00010423666
-3.2947921e-15
0.00010423666
-2.4688599e-15
0.00010423666
-3.0697027e-15
0.00010423666
-2.5789871e-15
0.00010423666
-3.1831341e-15
0.00010423666
-3.0387645e-15
0.00010423666
-3.5678781e-15
0.00010423666
-3.6383737e-15
0.00010423666
-3.9170407e-15
0.00010423666
-4.0791034e-15
0.00010423666
-4.0732356e-15
0.00010423666
-4.3616288e-15
0.00010423666
-4.0563418e-15
0.00010423666
-4.2999456e-15
0.00010423666
-3.6381809e-15
0.00010423666
-4.3553115e-15
0.00010423666
-4.0016225e-15
0.00010423666
-5.2796935e-15
0.00010423666
-4.3315886e-15
0.00010423666
-4.5306678e-15
0.00010423666
-2.0487446e-15
0.00010423666
-1.4317509e-15
0.00010423666
1.5045022e-15
0.00010423666
3.9291997e-16
0.00010423666
1.6951997e-15
0.00010423666
-1.5226739e-15
0.00010423666
-3.846113e-16
0.00010423666
-2.3491283e-15
0.00010423666
-2.2281231e-16
0.00010423666
-1.6683522e-15
0.00010423666
5.6945301e-16
0.00010423666
-2.0205513e-15
0.00010423666
-4.3438045e-16
0.00010423666
-3.4710322e-15
0.00010423666
-1.4969778e-15
0.00010423666
-2.2443294e-15
0.00010423666
1.5827783e-15
0.00010423666
2.7863494e-15
0.00010423666
5.8977996e-15
0.00010423666
3.4284793e-15
0.00010423666
4.8739771e-15
0.00010423666
2.4110623e-15
0.00010423666
3.8058019e-15
0.00010423666
2.0131195e-15
0.00010423666
3.4733768e-15
0.00010423666
2.1276466e-15
0.00010423666
3.538332e-15
0.00010423666
2.4669951e-15
0.00010423666
3.706407e-15
0.00010423666
2.8325726e-15
0.00010423666
3.8945733e-15
0.00010423666
3.1935854e-15
0.00010423666
4.063465e-15