/*--------------------------------*- C++ -*----------------------------------*\
| =========                 |                                                 |
| \\      /  F ield         | OpenFOAM: The Open Source CFD Toolbox           |
|  \\    /   O peration     | Version:  2206                                  |
|   \\  /    A nd           | Website:  www.openfoam.com                      |
|    \\/     M anipulation  |                                                 |
\*---------------------------------------------------------------------------*/
FoamFile
{
    version     2.0;
    format      ascii;
    arch        "LSB;label=32;scalar=64";
    class       volVectorField;
    location    "13";
    object      U;
}
// * * * * * * * * * * * * * * * * * * * * * * * * * * * * * * * * * * * * * //

dimensions      [0 1 -1 0 0 0 0];

internalField   nonuniform List<vector> 
15000
(
(0.15962853 0.053997677 0)
(0.11557193 0.006491638 0)
(0.064251361 0.0014144157 0)
(0.0559186 0.00074959561 0)
(0.047595818 0.00028826439 0)
(0.0447088 0.00019884024 0)
(0.042412495 9.0520077e-05 0)
(0.041406638 6.0126987e-05 0)
(0.040707476 2.8979289e-05 0)
(0.040376991 1.8020181e-05 0)
(0.040167798 8.6628253e-06 0)
(0.040068661 4.9964234e-06 0)
(0.040011054 2.2681717e-06 0)
(0.039985308 1.1742438e-06 0)
(0.039971973 4.4700104e-07 0)
(0.039967049 1.7410379e-07 0)
(0.03996518 1.4225911e-08 0)
(0.039965127 -3.0124646e-08 0)
(0.039965544 -4.8649565e-08 0)
(0.039966152 -4.3253075e-08 0)
(0.03996668 -3.5770425e-08 0)
(0.039967111 -2.6063416e-08 0)
(0.039967422 -1.855462e-08 0)
(0.039967642 -1.2456968e-08 0)
(0.03996779 -8.2344159e-09 0)
(0.039967887 -5.2527994e-09 0)
(0.039967949 -3.3081221e-09 0)
(0.039967988 -2.0318475e-09 0)
(0.039968012 -1.232247e-09 0)
(0.039968026 -7.3072623e-10 0)
(0.039968035 -4.2611499e-10 0)
(0.03996804 -2.4252235e-10 0)
(0.039968042 -1.3516053e-10 0)
(0.039968044 -7.3282079e-11 0)
(0.039968045 -3.8409272e-11 0)
(0.039968045 -1.9048723e-11 0)
(0.039968045 -8.8323035e-12 0)
(0.039968046 -3.820109e-12 0)
(0.039968046 -1.7233253e-12 0)
(0.039968046 -5.6036001e-13 0)
(0.039968046 1.0044056e-13 0)
(0.039968046 5.6100336e-13 0)
(0.039968046 6.0457609e-13 0)
(0.039968046 7.6857236e-13 0)
(0.039968046 5.6581523e-13 0)
(0.039968046 6.1018795e-13 0)
(0.039968046 4.5834866e-13 0)
(0.039968046 4.5881669e-13 0)
(0.039968046 1.4980745e-13 0)
(0.039968046 1.2584615e-13 0)
(0.039968046 -6.4462822e-14 0)
(0.039968046 3.7970467e-14 0)
(0.039968046 2.0602451e-13 0)
(0.039968046 5.2559791e-13 0)
(0.039968046 7.3430092e-13 0)
(0.039968046 6.8897639e-13 0)
(0.039968046 5.9921629e-13 0)
(0.039968046 4.6560893e-13 0)
(0.039968046 6.2279817e-13 0)
(0.039968046 6.3841191e-13 0)
(0.039968046 7.759865e-13 0)
(0.039968046 4.8548452e-13 0)
(0.039968046 4.367422e-13 0)
(0.039968046 5.2885793e-14 0)
(0.039968046 1.6316866e-13 0)
(0.039968046 -1.5252152e-13 0)
(0.039968046 -5.6202267e-14 0)
(0.039968046 -4.3784988e-13 0)
(0.039968046 -4.6052074e-13 0)
(0.039968046 -6.7487109e-13 0)
(0.039968046 -4.3166541e-13 0)
(0.039968046 -4.9098427e-13 0)
(0.039968046 -3.0447552e-13 0)
(0.039968046 -4.1800042e-13 0)
(0.039968046 -2.9361704e-13 0)
(0.039968046 -4.2198665e-13 0)
(0.039968046 -3.2070741e-13 0)
(0.039968046 -4.3643438e-13 0)
(0.039968046 -3.7086777e-13 0)
(0.039968046 -4.7842252e-13 0)
(0.039968046 -4.4234611e-13 0)
(0.039968046 -5.216984e-13 0)
(0.039968046 -4.9758693e-13 0)
(0.039968046 -5.4060277e-13 0)
(0.039968046 -5.3223369e-13 0)
(0.039968046 -5.5076249e-13 0)
(0.039968046 -5.7462856e-13 0)
(0.039968046 -5.7352127e-13 0)
(0.039968046 -5.9869193e-13 0)
(0.039968046 -5.1679709e-13 0)
(0.039968046 -5.4432803e-13 0)
(0.039968046 -4.9037924e-13 0)
(0.039968046 -6.62719e-13 0)
(0.039968046 -6.6486158e-13 0)
(0.039968046 -8.1750826e-13 0)
(0.039968046 -5.9916397e-13 0)
(0.039968046 -4.8184165e-13 0)
(0.039968046 3.3252143e-14 0)
(0.039968046 1.2150786e-13 0)
(0.039968046 3.8597544e-13 0)
(0.039968046 -2.3746348e-14 0)
(0.039968046 -1.019563e-13 0)
(0.039968046 -5.2097923e-13 0)
(0.039968046 -3.3156867e-13 0)
(0.039968046 -4.1954302e-13 0)
(0.039968046 2.0936401e-14 0)
(0.039968046 -1.1061597e-13 0)
(0.039968046 2.3418956e-13 0)
(0.039968046 -2.3636474e-14 0)
(0.039968046 2.6376455e-13 0)
(0.039968046 1.4805877e-13 0)
(0.039968046 5.3593338e-13 0)
(0.039968046 5.6663571e-13 0)
(0.039968046 7.987215e-13 0)
(0.039968046 4.0580914e-13 0)
(0.039968046 4.9966184e-13 0)
(0.039968046 2.3294509e-13 0)
(0.039968046 4.0814069e-13 0)
(0.039968046 2.5154968e-13 0)
(0.039968046 4.4634283e-13 0)
(0.039968046 3.2277688e-13 0)
(0.039968046 4.8835938e-13 0)
(0.039968046 3.7160181e-13 0)
(0.039968046 5.0455406e-13 0)
(0.039968046 4.106351e-13 0)
(0.039968046 5.2822738e-13 0)
(0.039968046 4.5952865e-13 0)
(0.039968046 5.5543463e-13 0)
(0.039968046 5.060837e-13 0)
(0.039968046 5.7672194e-13 0)
(0.039968046 5.4608882e-13 0)
(0.039968046 5.9092057e-13 0)
(0.039968046 5.7688428e-13 0)
(0.039968046 5.9422317e-13 0)
(0.039968046 6.0334714e-13 0)
(0.039968046 5.976577e-13 0)
(0.039968046 6.2977632e-13 0)
(0.039968046 5.9344889e-13 0)
(0.039968046 6.4168985e-13 0)
(0.039968046 5.7067514e-13 0)
(0.039968046 6.3102713e-13 0)
(0.039968046 5.2565727e-13 0)
(0.039968046 5.9941702e-13 0)
(0.039968046 4.5484938e-13 0)
(0.039968046 5.4138456e-13 0)
(0.039968046 3.7864439e-13 0)
(0.039968046 4.8641752e-13 0)
(0.039968046 2.9138381e-13 0)
(0.039968046 3.738557e-13 0)
(0.039968046 1.4686329e-13 0)
(0.039968046 3.1014517e-13 0)
(0.039968046 2.137552e-13 0)
(0.039968046 5.1164445e-13 0)
(0.039968046 4.2483614e-13 0)
(0.039968046 5.5319315e-13 0)
(0.039968046 1.9782446e-13 0)
(0.039968046 1.5467358e-13 0)
(0.039968046 -2.2847702e-13 0)
(0.039968046 -1.9586991e-13 0)
(0.039968046 -4.6389839e-13 0)
(0.039968046 -4.2381402e-13 0)
(0.039968046 -6.2066846e-13 0)
(0.039968046 -6.2877879e-13 0)
(0.039968046 -7.4529458e-13 0)
(0.039968046 -6.376426e-13 0)
(0.039968046 -6.3541532e-13 0)
(0.039968046 -5.4718916e-13 0)
(0.039968046 -5.4420728e-13 0)
(0.039968046 -5.9029645e-13 0)
(0.039968046 -6.7395384e-13 0)
(0.039968046 -7.712905e-13 0)
(0.039968046 -7.497693e-13 0)
(0.039968046 -6.602051e-13 0)
(0.039968046 -4.2301889e-13 0)
(0.039968046 -2.9155877e-13 0)
(0.039968046 -9.1612758e-14 0)
(0.039968046 -1.1007937e-13 0)
(0.039968046 2.0223366e-14 0)
(0.039968046 -7.5579233e-14 0)
(0.039968046 6.2032716e-14 0)
(0.039968046 -4.7385639e-14 0)
(0.039968046 1.3347221e-13 0)
(0.039968046 -1.1863854e-15 0)
(0.039968046 2.1039027e-13 0)
(0.039968046 7.5001866e-14 0)
(0.039968046 3.04071e-13 0)
(0.039968046 1.312762e-13 0)
(0.039968046 3.5556625e-13 0)
(0.039968046 1.8477815e-13 0)
(0.039968046 4.2370087e-13 0)
(0.039968046 2.4274581e-13 0)
(0.039968046 4.5956011e-13 0)
(0.039968046 2.5952782e-13 0)
(0.039968046 4.7508963e-13 0)
(0.039968046 3.9116918e-13 0)
(0.039968046 6.9796147e-13 0)
(0.039968046 7.3334801e-13 0)
(0.039968046 9.7658426e-13 0)
(0.039968046 1.0444253e-12 0)
(0.039968046 1.107783e-12 0)
(0.039968046 1.0702934e-12 0)
(0.039968046 7.9374756e-13 0)
(0.039968046 5.8336747e-13 0)
(0.039968046 1.5443992e-13 0)
(0.039968046 1.4835308e-13 0)
(0.039968046 -1.9472032e-13 0)
(0.039968046 -5.2979186e-14 0)
(0.039968046 -3.3160188e-13 0)
(0.039968046 -9.2365051e-14 0)
(0.039968046 -3.2286795e-13 0)
(0.039968046 -1.5761126e-13 0)
(0.039968046 -5.0996889e-13 0)
(0.039968046 -4.4608881e-13 0)
(0.039968046 -6.460988e-13 0)
(0.039968046 -3.0077489e-13 0)
(0.039968046 -2.2627173e-13 0)
(0.039968046 1.1404306e-13 0)
(0.039968046 -3.0584644e-14 0)
(0.039968046 -1.0445338e-14 0)
(0.039968046 -3.2325137e-13 0)
(0.039968046 -4.1495344e-13 0)
(0.039968046 -6.1711968e-13 0)
(0.039968046 -6.8705054e-13 0)
(0.039968046 -7.228091e-13 0)
(0.039968046 -7.6996445e-13 0)
(0.039968046 -7.2207534e-13 0)
(0.039968046 -7.4882315e-13 0)
(0.039968046 -5.1117661e-13 0)
(0.039968046 -4.454198e-13 0)
(0.039968046 -1.5010391e-13 0)
(0.039968046 -1.5104909e-13 0)
(0.039968046 1.0600394e-13 0)
(0.039968046 1.1133239e-13 0)
(0.039968046 3.9024635e-13 0)
(0.039968046 3.6872605e-13 0)
(0.039968046 5.2225008e-13 0)
(0.039968046 3.32345e-13 0)
(0.039968046 2.8039499e-13 0)
(0.039968046 -2.8128752e-14 0)
(0.039968046 -1.2436556e-13 0)
(0.039968046 -2.9581068e-13 0)
(0.039968046 -2.0244464e-13 0)
(0.039968046 -1.1688826e-13 0)
(0.039968046 1.2759499e-13 0)
(0.039968046 2.6088336e-13 0)
(0.039968046 4.1968834e-13 0)
(0.039968046 4.7475112e-13 0)
(0.039968046 4.9082269e-13 0)
(0.039968046 5.119895e-13 0)
(0.039968046 4.6698783e-13 0)
(0.039968046 5.1477495e-13 0)
(0.039968046 4.6768815e-13 0)
(0.039968046 5.0994282e-13 0)
(0.039968046 2.8693219e-13 0)
(0.039968046 1.3562212e-13 0)
(0.039968046 -2.3724247e-13 0)
(0.039968046 -3.4740286e-13 0)
(0.039968046 -5.1029349e-13 0)
(0.039968046 -3.7771227e-13 0)
(0.039968046 -3.0546713e-13 0)
(0.039968046 -9.6851834e-14 0)
(0.039968046 -3.5642408e-14 0)
(0.039968046 6.8496834e-14 0)
(0.039968046 7.4996666e-14 0)
(0.039968046 8.8267882e-14 0)
(0.039968046 6.0079191e-14 0)
(0.039968046 -1.1554354e-14 0)
(0.039968046 -2.4967323e-14 0)
(0.039968046 -5.3828019e-14 0)
(0.039968046 8.5214704e-14 0)
(0.039968046 1.0830585e-13 0)
(0.039968046 2.6080565e-13 0)
(0.039968046 1.5223392e-13 0)
(0.039968046 2.1886597e-13 0)
(0.039968046 9.4989257e-14 0)
(0.039968046 1.4294799e-13 0)
(0.039968046 -1.1176351e-14 0)
(0.039968046 3.482869e-14 0)
(0.039968046 -3.7121597e-14 0)
(0.039968046 3.9432973e-14 0)
(0.039968046 -2.4550416e-14 0)
(0.039968046 -7.3680601e-14 0)
(0.039968046 -2.2186686e-13 0)
(0.039968046 -3.0402428e-13 0)
(0.039968046 -2.7270679e-13 0)
(0.039968046 -1.7358337e-13 0)
(0.039968046 1.3426884e-14 0)
(0.039968046 1.3351267e-13 0)
(0.039968046 2.5026457e-13 0)
(0.039968046 2.6410705e-13 0)
(0.039968046 2.9783929e-13 0)
(0.039968046 2.4750911e-13 0)
(0.039968046 2.8028876e-13 0)
(0.039968046 2.4963233e-13 0)
(0.039968046 2.5913778e-13 0)
(0.039968046 1.4410773e-13 0)
(0.039968046 1.7301365e-13 0)
(0.039968046 2.636445e-13 0)
(0.039968046 4.2339901e-13 0)
(0.039968046 2.2258481e-13 0)
(0.36732383 0.14062829 0)
(0.29754389 0.025079375 0)
(0.1860793 0.0083694515 0)
(0.16132807 0.0041218647 0)
(0.13901859 0.0019375718 0)
(0.13040448 0.0011770172 0)
(0.12396461 0.00061112396 0)
(0.12095999 0.00037191641 0)
(0.1189454 0.00019726472 0)
(0.11794826 0.00011564142 0)
(0.11733081 6.0261221e-05 0)
(0.11702581 3.3417297e-05 0)
(0.11685066 1.6513329e-05 0)
(0.11676842 8.3939963e-06 0)
(0.1167257 3.664056e-06 0)
(0.11670834 1.5211898e-06 0)
(0.1167012 3.9952332e-07 0)
(0.11669986 -2.8099016e-08 0)
(0.1167004 -1.9908723e-07 0)
(0.11670175 -2.1594929e-07 0)
(0.11670304 -1.9037779e-07 0)
(0.11670415 -1.4606947e-07 0)
(0.11670497 -1.0640963e-07 0)
(0.11670557 -7.3313015e-08 0)
(0.11670597 -4.9159329e-08 0)
(0.11670624 -3.1906687e-08 0)
(0.11670642 -2.0315374e-08 0)
(0.11670653 -1.2637521e-08 0)
(0.11670659 -7.7331156e-09 0)
(0.11670664 -4.6371943e-09 0)
(0.11670666 -2.7329538e-09 0)
(0.11670667 -1.577388e-09 0)
(0.11670668 -8.9241682e-10 0)
(0.11670669 -4.9299645e-10 0)
(0.11670669 -2.6484522e-10 0)
(0.11670669 -1.3686433e-10 0)
(0.11670669 -6.7391372e-11 0)
(0.11670669 -3.1211923e-11 0)
(0.11670669 -1.3591556e-11 0)
(0.11670669 -4.5432255e-12 0)
(0.11670669 -8.7281046e-14 0)
(0.11670669 2.133276e-12 0)
(0.11670669 2.5138965e-12 0)
(0.11670669 2.7811983e-12 0)
(0.11670669 2.0124862e-12 0)
(0.11670669 1.9087756e-12 0)
(0.11670669 1.3612635e-12 0)
(0.11670669 1.272945e-12 0)
(0.11670669 4.8043591e-13 0)
(0.11670669 4.9561169e-13 0)
(0.11670669 1.1487911e-13 0)
(0.11670669 4.371291e-13 0)
(0.11670669 8.48632e-13 0)
(0.11670669 1.6082584e-12 0)
(0.11670669 1.9959492e-12 0)
(0.11670669 1.8155131e-12 0)
(0.11670669 1.5156881e-12 0)
(0.11670669 1.2270228e-12 0)
(0.11670669 1.547488e-12 0)
(0.11670669 1.5855468e-12 0)
(0.11670669 1.7774796e-12 0)
(0.11670669 1.059811e-12 0)
(0.11670669 9.2862958e-13 0)
(0.11670669 9.7841622e-14 0)
(0.11670669 4.3311633e-13 0)
(0.11670669 -2.659491e-13 0)
(0.11670669 -5.2734589e-14 0)
(0.11670669 -1.0306547e-12 0)
(0.11670669 -1.200639e-12 0)
(0.11670669 -1.7714675e-12 0)
(0.11670669 -1.2763127e-12 0)
(0.11670669 -1.3854245e-12 0)
(0.11670669 -9.6013836e-13 0)
(0.11670669 -1.1795601e-12 0)
(0.11670669 -8.8964433e-13 0)
(0.11670669 -1.1485172e-12 0)
(0.11670669 -9.1886282e-13 0)
(0.11670669 -1.1500109e-12 0)
(0.11670669 -1.0158942e-12 0)
(0.11670669 -1.2403348e-12 0)
(0.11670669 -1.193167e-12 0)
(0.11670669 -1.364589e-12 0)
(0.11670669 -1.3549456e-12 0)
(0.11670669 -1.4368147e-12 0)
(0.11670669 -1.4559602e-12 0)
(0.11670669 -1.4686962e-12 0)
(0.11670669 -1.555467e-12 0)
(0.11670669 -1.5095207e-12 0)
(0.11670669 -1.5805837e-12 0)
(0.11670669 -1.3459079e-12 0)
(0.11670669 -1.4650498e-12 0)
(0.11670669 -1.3436885e-12 0)
(0.11670669 -1.8080388e-12 0)
(0.11670669 -1.7477114e-12 0)
(0.11670669 -2.0291232e-12 0)
(0.11670669 -1.3608502e-12 0)
(0.11670669 -1.0039439e-12 0)
(0.11670669 2.8467463e-13 0)
(0.11670669 3.9216263e-13 0)
(0.11670669 9.6378972e-13 0)
(0.11670669 -1.4762691e-13 0)
(0.11670669 -2.8430212e-13 0)
(0.11670669 -1.2220435e-12 0)
(0.11670669 -6.7462528e-13 0)
(0.11670669 -8.7452652e-13 0)
(0.11670669 1.8880587e-13 0)
(0.11670669 -2.0643505e-13 0)
(0.11670669 5.8824735e-13 0)
(0.11670669 -1.1609246e-13 0)
(0.11670669 5.5847627e-13 0)
(0.11670669 2.9049133e-13 0)
(0.11670669 1.3011572e-12 0)
(0.11670669 1.4675451e-12 0)
(0.11670669 2.1337799e-12 0)
(0.11670669 1.1707837e-12 0)
(0.11670669 1.4495391e-12 0)
(0.11670669 7.3451326e-13 0)
(0.11670669 1.17089e-12 0)
(0.11670669 7.292283e-13 0)
(0.11670669 1.2113286e-12 0)
(0.11670669 8.7754659e-13 0)
(0.11670669 1.3041554e-12 0)
(0.11670669 1.0060383e-12 0)
(0.11670669 1.3560169e-12 0)
(0.11670669 1.1142042e-12 0)
(0.11670669 1.4222929e-12 0)
(0.11670669 1.2407303e-12 0)
(0.11670669 1.4945639e-12 0)
(0.11670669 1.3566089e-12 0)
(0.11670669 1.5484522e-12 0)
(0.11670669 1.4537006e-12 0)
(0.11670669 1.5816673e-12 0)
(0.11670669 1.526954e-12 0)
(0.11670669 1.5920459e-12 0)
(0.11670669 1.5974269e-12 0)
(0.11670669 1.6111336e-12 0)
(0.11670669 1.6706479e-12 0)
(0.11670669 1.6077773e-12 0)
(0.11670669 1.7018903e-12 0)
(0.11670669 1.5525439e-12 0)
(0.11670669 1.676433e-12 0)
(0.11670669 1.4425098e-12 0)
(0.11670669 1.59655e-12 0)
(0.11670669 1.2663375e-12 0)
(0.11670669 1.449237e-12 0)
(0.11670669 1.0727213e-12 0)
(0.11670669 1.297269e-12 0)
(0.11670669 8.2970727e-13 0)
(0.11670669 9.9619606e-13 0)
(0.11670669 4.8546935e-13 0)
(0.11670669 9.0134306e-13 0)
(0.11670669 7.1457419e-13 0)
(0.11670669 1.3862825e-12 0)
(0.11670669 1.1260266e-12 0)
(0.11670669 1.3053599e-12 0)
(0.11670669 4.2172465e-13 0)
(0.11670669 2.8704396e-13 0)
(0.11670669 -6.027565e-13 0)
(0.11670669 -5.1163342e-13 0)
(0.11670669 -1.1650563e-12 0)
(0.11670669 -1.1207174e-12 0)
(0.11670669 -1.6623201e-12 0)
(0.11670669 -1.7513778e-12 0)
(0.11670669 -2.0520223e-12 0)
(0.11670669 -1.7781879e-12 0)
(0.11670669 -1.7439428e-12 0)
(0.11670669 -1.5068323e-12 0)
(0.11670669 -1.5150679e-12 0)
(0.11670669 -1.6483823e-12 0)
(0.11670669 -1.8456146e-12 0)
(0.11670669 -2.0002614e-12 0)
(0.11670669 -1.856821e-12 0)
(0.11670669 -1.5265832e-12 0)
(0.11670669 -9.2845648e-13 0)
(0.11670669 -5.9652243e-13 0)
(0.11670669 -1.3295399e-13 0)
(0.11670669 -1.8181237e-13 0)
(0.11670669 1.060031e-13 0)
(0.11670669 -1.1767221e-13 0)
(0.11670669 1.9573168e-13 0)
(0.11670669 -5.4635314e-14 0)
(0.11670669 3.6263019e-13 0)
(0.11670669 5.1694452e-14 0)
(0.11670669 5.5212706e-13 0)
(0.11670669 2.5364656e-13 0)
(0.11670669 8.0241278e-13 0)
(0.11670669 4.2067396e-13 0)
(0.11670669 9.7267342e-13 0)
(0.11670669 6.0925635e-13 0)
(0.11670669 1.1917577e-12 0)
(0.11670669 7.7903274e-13 0)
(0.11670669 1.2726947e-12 0)
(0.11670669 8.0206227e-13 0)
(0.11670669 1.3145898e-12 0)
(0.11670669 1.1576537e-12 0)
(0.11670669 1.8824389e-12 0)
(0.11670669 1.9467509e-12 0)
(0.11670669 2.4776427e-12 0)
(0.11670669 2.6061644e-12 0)
(0.11670669 2.715116e-12 0)
(0.11670669 2.5567026e-12 0)
(0.11670669 1.819373e-12 0)
(0.11670669 1.2471271e-12 0)
(0.11670669 1.8335865e-13 0)
(0.11670669 1.6150408e-13 0)
(0.11670669 -6.3938476e-13 0)
(0.11670669 -2.9152108e-13 0)
(0.11670669 -9.296941e-13 0)
(0.11670669 -3.6211222e-13 0)
(0.11670669 -9.3757978e-13 0)
(0.11670669 -5.9234597e-13 0)
(0.11670669 -1.4561854e-12 0)
(0.11670669 -1.2518509e-12 0)
(0.11670669 -1.6175411e-12 0)
(0.11670669 -6.9513691e-13 0)
(0.11670669 -5.0991485e-13 0)
(0.11670669 2.5133873e-13 0)
(0.11670669 -1.6372296e-13 0)
(0.11670669 -1.581972e-13 0)
(0.11670669 -9.0145109e-13 0)
(0.11670669 -1.1198414e-12 0)
(0.11670669 -1.5782602e-12 0)
(0.11670669 -1.7531478e-12 0)
(0.11670669 -1.8445782e-12 0)
(0.11670669 -1.9551106e-12 0)
(0.11670669 -1.8115344e-12 0)
(0.11670669 -1.7969002e-12 0)
(0.11670669 -1.1719715e-12 0)
(0.11670669 -9.6654354e-13 0)
(0.11670669 -2.6410494e-13 0)
(0.11670669 -2.3691917e-13 0)
(0.11670669 4.0444418e-13 0)
(0.11670669 4.5456632e-13 0)
(0.11670669 1.1103747e-12 0)
(0.11670669 9.9678486e-13 0)
(0.11670669 1.2850416e-12 0)
(0.11670669 7.2985305e-13 0)
(0.11670669 5.393057e-13 0)
(0.11670669 -2.2865151e-13 0)
(0.11670669 -4.5885245e-13 0)
(0.11670669 -7.876424e-13 0)
(0.11670669 -4.9864514e-13 0)
(0.11670669 -2.0515462e-13 0)
(0.11670669 3.9823981e-13 0)
(0.11670669 7.4175947e-13 0)
(0.11670669 1.1267782e-12 0)
(0.11670669 1.2675132e-12 0)
(0.11670669 1.3230449e-12 0)
(0.11670669 1.3971607e-12 0)
(0.11670669 1.3021131e-12 0)
(0.11670669 1.4040181e-12 0)
(0.11670669 1.2387544e-12 0)
(0.11670669 1.2398314e-12 0)
(0.11670669 6.0276224e-13 0)
(0.11670669 1.7091688e-13 0)
(0.11670669 -7.2565734e-13 0)
(0.11670669 -9.4079365e-13 0)
(0.11670669 -1.2366218e-12 0)
(0.11670669 -8.4105634e-13 0)
(0.11670669 -6.2174306e-13 0)
(0.11670669 -1.0998352e-13 0)
(0.11670669 4.1912403e-14 0)
(0.11670669 3.0160345e-13 0)
(0.11670669 3.2119068e-13 0)
(0.11670669 3.5876823e-13 0)
(0.11670669 2.8042106e-13 0)
(0.11670669 1.106865e-13 0)
(0.11670669 9.7136993e-14 0)
(0.11670669 5.6984773e-14 0)
(0.11670669 3.905833e-13 0)
(0.11670669 3.9647035e-13 0)
(0.11670669 6.7101574e-13 0)
(0.11670669 3.1953492e-13 0)
(0.11670669 4.230765e-13 0)
(0.11670669 1.07093e-13 0)
(0.11670669 2.3141368e-13 0)
(0.11670669 -1.3748844e-13 0)
(0.11670669 -2.3873178e-14 0)
(0.11670669 -2.0255907e-13 0)
(0.11670669 -4.3839466e-14 0)
(0.11670669 -2.3884279e-13 0)
(0.11670669 -3.8002639e-13 0)
(0.11670669 -7.097845e-13 0)
(0.11670669 -8.370627e-13 0)
(0.11670669 -6.5527848e-13 0)
(0.11670669 -3.4107901e-13 0)
(0.11670669 1.4826719e-13 0)
(0.11670669 4.4925493e-13 0)
(0.11670669 7.2246985e-13 0)
(0.11670669 7.6074971e-13 0)
(0.11670669 8.3887447e-13 0)
(0.11670669 7.3461016e-13 0)
(0.11670669 8.1706464e-13 0)
(0.11670669 7.4788248e-13 0)
(0.11670669 7.3800572e-13 0)
(0.11670669 4.6857218e-13 0)
(0.11670669 5.8654113e-13 0)
(0.11670669 8.5094916e-13 0)
(0.11670669 1.129505e-12 0)
(0.11670669 5.3963163e-13 0)
(0.50390834 0.19019021 0)
(0.4384704 0.05043149 0)
(0.29767008 0.022055297 0)
(0.25944374 0.010780083 0)
(0.22598939 0.0055621274 0)
(0.21213187 0.0032307903 0)
(0.20205719 0.0017732838 0)
(0.19716897 0.0010457338 0)
(0.19394744 0.00057679112 0)
(0.19230772 0.00033133137 0)
(0.19130242 0.00017832806 0)
(0.19079327 9.7726462e-05 0)
(0.19050201 4.9923491e-05 0)
(0.1903612 2.5327091e-05 0)
(0.19028762 1.1620375e-05 0)
(0.19025609 4.9689212e-06 0)
(0.1902425 1.5962801e-06 0)
(0.19023894 1.7334422e-07 0)
(0.19023899 -3.9990765e-07 0)
(0.19024063 -5.2256696e-07 0)
(0.19024241 -4.8500285e-07 0)
(0.19024402 -3.8488444e-07 0)
(0.19024524 -2.8487111e-07 0)
(0.19024615 -1.9926239e-07 0)
(0.19024677 -1.3480293e-07 0)
(0.19024719 -8.8330105e-08 0)
(0.19024746 -5.6605745e-08 0)
(0.19024763 -3.5461135e-08 0)
(0.19024774 -2.1815838e-08 0)
(0.1902478 -1.3162095e-08 0)
(0.19024784 -7.8010347e-09 0)
(0.19024787 -4.5334072e-09 0)
(0.19024788 -2.5830582e-09 0)
(0.19024789 -1.4389911e-09 0)
(0.19024789 -7.8100027e-10 0)
(0.19024789 -4.0975014e-10 0)
(0.1902479 -2.0592191e-10 0)
(0.1902479 -9.7821796e-11 0)
(0.1902479 -4.3174265e-11 0)
(0.1902479 -1.5524491e-11 0)
(0.1902479 -2.2508697e-12 0)
(0.1902479 3.7725923e-12 0)
(0.1902479 5.3209812e-12 0)
(0.1902479 5.6561002e-12 0)
(0.1902479 4.2135933e-12 0)
(0.1902479 3.6437857e-12 0)
(0.1902479 2.5136454e-12 0)
(0.1902479 2.1410549e-12 0)
(0.1902479 9.2288302e-13 0)
(0.1902479 8.6137002e-13 0)
(0.1902479 3.0283643e-13 0)
(0.1902479 6.9570133e-13 0)
(0.1902479 1.2741862e-12 0)
(0.1902479 2.3371615e-12 0)
(0.1902479 2.8799845e-12 0)
(0.1902479 2.6409258e-12 0)
(0.1902479 2.2069216e-12 0)
(0.1902479 1.7996912e-12 0)
(0.1902479 2.26397e-12 0)
(0.1902479 2.2270371e-12 0)
(0.1902479 2.422343e-12 0)
(0.1902479 1.3455776e-12 0)
(0.1902479 1.1316455e-12 0)
(0.1902479 3.8917016e-15 0)
(0.1902479 5.259804e-13 0)
(0.1902479 -3.6439435e-13 0)
(0.1902479 -1.7160246e-14 0)
(0.1902479 -1.3539993e-12 0)
(0.1902479 -1.6376765e-12 0)
(0.1902479 -2.5110286e-12 0)
(0.1902479 -1.8912562e-12 0)
(0.1902479 -2.0986413e-12 0)
(0.1902479 -1.4985092e-12 0)
(0.1902479 -1.7964215e-12 0)
(0.1902479 -1.3598668e-12 0)
(0.1902479 -1.7030025e-12 0)
(0.1902479 -1.3540571e-12 0)
(0.1902479 -1.6642434e-12 0)
(0.1902479 -1.4636217e-12 0)
(0.1902479 -1.7833241e-12 0)
(0.1902479 -1.722085e-12 0)
(0.1902479 -1.9793136e-12 0)
(0.1902479 -1.9750867e-12 0)
(0.1902479 -2.1037967e-12 0)
(0.1902479 -2.132454e-12 0)
(0.1902479 -2.1580037e-12 0)
(0.1902479 -2.276217e-12 0)
(0.1902479 -2.2143387e-12 0)
(0.1902479 -2.2967801e-12 0)
(0.1902479 -1.9682982e-12 0)
(0.1902479 -2.140414e-12 0)
(0.1902479 -2.0092773e-12 0)
(0.1902479 -2.6823569e-12 0)
(0.1902479 -2.5937085e-12 0)
(0.1902479 -2.9138714e-12 0)
(0.1902479 -1.8866366e-12 0)
(0.1902479 -1.2576963e-12 0)
(0.1902479 6.0483939e-13 0)
(0.1902479 7.8117211e-13 0)
(0.1902479 1.5038563e-12 0)
(0.1902479 -1.460474e-13 0)
(0.1902479 -3.816438e-13 0)
(0.1902479 -1.6961394e-12 0)
(0.1902479 -8.9973116e-13 0)
(0.1902479 -1.1139902e-12 0)
(0.1902479 3.8335001e-13 0)
(0.1902479 -1.5393058e-13 0)
(0.1902479 9.1304845e-13 0)
(0.1902479 -1.0596808e-13 0)
(0.1902479 7.6665926e-13 0)
(0.1902479 3.677244e-13 0)
(0.1902479 1.7652311e-12 0)
(0.1902479 2.0043485e-12 0)
(0.1902479 3.0030686e-12 0)
(0.1902479 1.7593205e-12 0)
(0.1902479 2.2014412e-12 0)
(0.1902479 1.192296e-12 0)
(0.1902479 1.7871082e-12 0)
(0.1902479 1.1388749e-12 0)
(0.1902479 1.8011243e-12 0)
(0.1902479 1.3221817e-12 0)
(0.1902479 1.9205052e-12 0)
(0.1902479 1.4992128e-12 0)
(0.1902479 1.993644e-12 0)
(0.1902479 1.652132e-12 0)
(0.1902479 2.0911735e-12 0)
(0.1902479 1.8358536e-12 0)
(0.1902479 2.2009909e-12 0)
(0.1902479 2.0037554e-12 0)
(0.1902479 2.2823951e-12 0)
(0.1902479 2.1423264e-12 0)
(0.1902479 2.3322338e-12 0)
(0.1902479 2.2458103e-12 0)
(0.1902479 2.3526667e-12 0)
(0.1902479 2.3519756e-12 0)
(0.1902479 2.3927556e-12 0)
(0.1902479 2.4670707e-12 0)
(0.1902479 2.4015314e-12 0)
(0.1902479 2.5200102e-12 0)
(0.1902479 2.3335532e-12 0)
(0.1902479 2.4915745e-12 0)
(0.1902479 2.1887544e-12 0)
(0.1902479 2.3858262e-12 0)
(0.1902479 1.9470288e-12 0)
(0.1902479 2.1809522e-12 0)
(0.1902479 1.6761928e-12 0)
(0.1902479 1.9600312e-12 0)
(0.1902479 1.3171724e-12 0)
(0.1902479 1.5130694e-12 0)
(0.1902479 8.3078582e-13 0)
(0.1902479 1.4220357e-12 0)
(0.1902479 1.2203422e-12 0)
(0.1902479 2.1597977e-12 0)
(0.1902479 1.7868555e-12 0)
(0.1902479 1.9416206e-12 0)
(0.1902479 6.7534262e-13 0)
(0.1902479 4.216756e-13 0)
(0.1902479 -8.0218005e-13 0)
(0.1902479 -6.941176e-13 0)
(0.1902479 -1.5833607e-12 0)
(0.1902479 -1.5432409e-12 0)
(0.1902479 -2.323288e-12 0)
(0.1902479 -2.4952613e-12 0)
(0.1902479 -2.9524136e-12 0)
(0.1902479 -2.619454e-12 0)
(0.1902479 -2.5758333e-12 0)
(0.1902479 -2.2425477e-12 0)
(0.1902479 -2.2666325e-12 0)
(0.1902479 -2.4766431e-12 0)
(0.1902479 -2.7592287e-12 0)
(0.1902479 -2.9385572e-12 0)
(0.1902479 -2.6648338e-12 0)
(0.1902479 -2.0912586e-12 0)
(0.1902479 -1.1983079e-12 0)
(0.1902479 -6.682553e-13 0)
(0.1902479 5.7749013e-16 0)
(0.1902479 -3.0737653e-14 0)
(0.1902479 3.6616646e-13 0)
(0.1902479 8.0676815e-14 0)
(0.1902479 5.0522014e-13 0)
(0.1902479 1.7010631e-13 0)
(0.1902479 7.2753508e-13 0)
(0.1902479 3.0285528e-13 0)
(0.1902479 9.7209397e-13 0)
(0.1902479 5.728232e-13 0)
(0.1902479 1.3134271e-12 0)
(0.1902479 8.1037461e-13 0)
(0.1902479 1.5688939e-12 0)
(0.1902479 1.0958555e-12 0)
(0.1902479 1.8802293e-12 0)
(0.1902479 1.3005328e-12 0)
(0.1902479 1.9119841e-12 0)
(0.1902479 1.2149471e-12 0)
(0.1902479 1.8459248e-12 0)
(0.1902479 1.5937835e-12 0)
(0.1902479 2.512815e-12 0)
(0.1902479 2.5318393e-12 0)
(0.1902479 3.1491583e-12 0)
(0.1902479 3.248252e-12 0)
(0.1902479 3.3416382e-12 0)
(0.1902479 3.0758421e-12 0)
(0.1902479 2.022123e-12 0)
(0.1902479 1.2182137e-12 0)
(0.1902479 -2.0692969e-13 0)
(0.1902479 -1.7063303e-13 0)
(0.1902479 -1.1712678e-12 0)
(0.1902479 -6.1287089e-13 0)
(0.1902479 -1.4012792e-12 0)
(0.1902479 -5.699492e-13 0)
(0.1902479 -1.3401738e-12 0)
(0.1902479 -9.0125998e-13 0)
(0.1902479 -2.1446689e-12 0)
(0.1902479 -1.8906526e-12 0)
(0.1902479 -2.3320793e-12 0)
(0.1902479 -9.6384938e-13 0)
(0.1902479 -6.2516533e-13 0)
(0.1902479 4.5226894e-13 0)
(0.1902479 -1.2065231e-13 0)
(0.1902479 -1.2587892e-13 0)
(0.1902479 -1.1267464e-12 0)
(0.1902479 -1.4088293e-12 0)
(0.1902479 -1.9984536e-12 0)
(0.1902479 -2.2195224e-12 0)
(0.1902479 -2.3578269e-12 0)
(0.1902479 -2.5550065e-12 0)
(0.1902479 -2.3990013e-12 0)
(0.1902479 -2.3955975e-12 0)
(0.1902479 -1.5319115e-12 0)
(0.1902479 -1.2274372e-12 0)
(0.1902479 -2.7923005e-13 0)
(0.1902479 -2.277771e-13 0)
(0.1902479 6.6874892e-13 0)
(0.1902479 7.7833364e-13 0)
(0.1902479 1.6813285e-12 0)
(0.1902479 1.5084058e-12 0)
(0.1902479 1.835349e-12 0)
(0.1902479 9.8110837e-13 0)
(0.1902479 6.3142062e-13 0)
(0.1902479 -5.0195565e-13 0)
(0.1902479 -8.6588904e-13 0)
(0.1902479 -1.3098419e-12 0)
(0.1902479 -8.6876154e-13 0)
(0.1902479 -3.8683635e-13 0)
(0.1902479 4.7589361e-13 0)
(0.1902479 9.8629899e-13 0)
(0.1902479 1.5201898e-12 0)
(0.1902479 1.7126065e-12 0)
(0.1902479 1.7862925e-12 0)
(0.1902479 1.9005306e-12 0)
(0.1902479 1.8043372e-12 0)
(0.1902479 1.98793e-12 0)
(0.1902479 1.7868552e-12 0)
(0.1902479 1.766713e-12 0)
(0.1902479 8.3449466e-13 0)
(0.1902479 1.6914877e-13 0)
(0.1902479 -1.0949139e-12 0)
(0.1902479 -1.3871485e-12 0)
(0.1902479 -1.7221318e-12 0)
(0.1902479 -1.0876301e-12 0)
(0.1902479 -7.05307e-13 0)
(0.1902479 5.2582278e-14 0)
(0.1902479 2.9905795e-13 0)
(0.1902479 6.7903287e-13 0)
(0.1902479 7.25623e-13 0)
(0.1902479 7.8069034e-13 0)
(0.1902479 6.7157172e-13 0)
(0.1902479 4.3015093e-13 0)
(0.1902479 4.2515819e-13 0)
(0.1902479 3.9684227e-13 0)
(0.1902479 8.7851612e-13 0)
(0.1902479 8.6659966e-13 0)
(0.1902479 1.163695e-12 0)
(0.1902479 5.6316145e-13 0)
(0.1902479 5.7599772e-13 0)
(0.1902479 3.1113559e-14 0)
(0.1902479 1.3557704e-13 0)
(0.1902479 -4.2423451e-13 0)
(0.1902479 -2.9507909e-13 0)
(0.1902479 -5.5301469e-13 0)
(0.1902479 -3.4675788e-13 0)
(0.1902479 -6.3332225e-13 0)
(0.1902479 -8.4663543e-13 0)
(0.1902479 -1.2999839e-12 0)
(0.1902479 -1.4207109e-12 0)
(0.1902479 -1.076951e-12 0)
(0.1902479 -5.4261581e-13 0)
(0.1902479 2.2266028e-13 0)
(0.1902479 6.8831874e-13 0)
(0.1902479 1.1061734e-12 0)
(0.1902479 1.1837625e-12 0)
(0.1902479 1.3029672e-12 0)
(0.1902479 1.1730442e-12 0)
(0.1902479 1.2936968e-12 0)
(0.1902479 1.2041638e-12 0)
(0.1902479 1.1717659e-12 0)
(0.1902479 7.9333222e-13 0)
(0.1902479 9.8156445e-13 0)
(0.1902479 1.3968819e-12 0)
(0.1902479 1.74734e-12 0)
(0.1902479 8.1027138e-13 0)
(0.59346672 0.21467329 0)
(0.54593347 0.07599839 0)
(0.39702192 0.039312278 0)
(0.34953973 0.01972054 0)
(0.30792187 0.010726723 0)
(0.28963523 0.0061583682 0)
(0.27651264 0.0034761782 0)
(0.26994405 0.0020291 0)
(0.26565503 0.0011409864 0)
(0.26342423 0.0006514038 0)
(0.26206335 0.00035633164 0)
(0.26136077 0.00019487338 0)
(0.26095907 0.00010129515 0)
(0.26076048 5.1592874e-05 0)
(0.260656 2.4317526e-05 0)
(0.26060945 1.0645019e-05 0)
(0.26058866 3.7612552e-06 0)
(0.26058217 7.1202116e-07 0)
(0.26058122 -5.4238807e-07 0)
(0.26058278 -8.8406021e-07 0)
(0.2605848 -8.6445466e-07 0)
(0.26058673 -7.0548688e-07 0)
(0.26058825 -5.2970622e-07 0)
(0.26058939 -3.7486146e-07 0)
(0.26059018 -2.5551384e-07 0)
(0.26059072 -1.6861886e-07 0)
(0.26059108 -1.0862806e-07 0)
(0.2605913 -6.8406168e-08 0)
(0.26059144 -4.2263296e-08 0)
(0.26059153 -2.5613371e-08 0)
(0.26059159 -1.5246126e-08 0)
(0.26059162 -8.9034119e-09 0)
(0.26059163 -5.0992106e-09 0)
(0.26059165 -2.8576536e-09 0)
(0.26059165 -1.5621791e-09 0)
(0.26059165 -8.280497e-10 0)
(0.26059166 -4.2218626e-10 0)
(0.26059166 -2.0425693e-10 0)
(0.26059166 -9.1674872e-11 0)
(0.26059166 -3.4685867e-11 0)
(0.26059166 -7.6366226e-12 0)
(0.26059166 4.2614479e-12 0)
(0.26059166 7.6612262e-12 0)
(0.26059166 8.2701919e-12 0)
(0.26059166 6.3665778e-12 0)
(0.26059166 5.4284093e-12 0)
(0.26059166 3.8145445e-12 0)
(0.26059166 3.2081686e-12 0)
(0.26059166 1.6937002e-12 0)
(0.26059166 1.6535522e-12 0)
(0.26059166 1.0664096e-12 0)
(0.26059166 1.5666725e-12 0)
(0.26059166 2.0618541e-12 0)
(0.26059166 2.9978371e-12 0)
(0.26059166 3.3271256e-12 0)
(0.26059166 2.9002071e-12 0)
(0.26059166 2.3383883e-12 0)
(0.26059166 1.819509e-12 0)
(0.26059166 2.230096e-12 0)
(0.26059166 2.0454236e-12 0)
(0.26059166 2.231064e-12 0)
(0.26059166 1.1788467e-12 0)
(0.26059166 1.3216156e-12 0)
(0.26059166 4.3290099e-13 0)
(0.26059166 1.3718233e-12 0)
(0.26059166 4.7441932e-13 0)
(0.26059166 8.602276e-13 0)
(0.26059166 -8.4564962e-13 0)
(0.26059166 -1.3758815e-12 0)
(0.26059166 -2.6003739e-12 0)
(0.26059166 -2.0035779e-12 0)
(0.26059166 -2.3269187e-12 0)
(0.26059166 -1.6304856e-12 0)
(0.26059166 -1.9705466e-12 0)
(0.26059166 -1.4272539e-12 0)
(0.26059166 -1.8079895e-12 0)
(0.26059166 -1.3765731e-12 0)
(0.26059166 -1.7230897e-12 0)
(0.26059166 -1.4645324e-12 0)
(0.26059166 -1.8190934e-12 0)
(0.26059166 -1.7307717e-12 0)
(0.26059166 -2.0292673e-12 0)
(0.26059166 -2.0284843e-12 0)
(0.26059166 -2.1875062e-12 0)
(0.26059166 -2.2301153e-12 0)
(0.26059166 -2.2570808e-12 0)
(0.26059166 -2.3850031e-12 0)
(0.26059166 -2.2845644e-12 0)
(0.26059166 -2.3853655e-12 0)
(0.26059166 -2.0396964e-12 0)
(0.26059166 -2.3103942e-12 0)
(0.26059166 -2.1521625e-12 0)
(0.26059166 -2.8501841e-12 0)