/*--------------------------------*- C++ -*----------------------------------*\
| =========                 |                                                 |
| \\      /  F ield         | OpenFOAM: The Open Source CFD Toolbox           |
|  \\    /   O peration     | Version:  2206                                  |
|   \\  /    A nd           | Website:  www.openfoam.com                      |
|    \\/     M anipulation  |                                                 |
\*---------------------------------------------------------------------------*/
FoamFile
{
    version     2.0;
    format      ascii;
    arch        "LSB;label=32;scalar=64";
    class       surfaceScalarField;
    location    "3";
    object      phi;
}
// * * * * * * * * * * * * * * * * * * * * * * * * * * * * * * * * * * * * * //

dimensions      [0 3 -1 0 0 0 0];

oriented        oriented;

internalField   nonuniform List<scalar> 
29650
(
6.0867649e-05
0.00020579916
3.2718171e-05
2.8149487e-05
2.4599022e-05
8.1191532e-06
2.0417848e-05
4.181173e-06
1.8552177e-05
1.8656729e-06
1.7373699e-05
1.1784818e-06
1.6781661e-05
5.9204311e-07
1.6412315e-05
3.6934718e-07
1.6220821e-05
1.9148939e-07
1.6106686e-05
1.1412596e-07
1.6048258e-05
5.8417036e-08
1.6015474e-05
3.2774106e-08
1.5999541e-05
1.5925947e-08
1.5991376e-05
8.1629043e-09
1.5987889e-05
3.4871947e-09
1.598644e-05
1.4500033e-09
1.5986091e-05
3.5134679e-10
1.5986138e-05
-4.6613923e-11
1.598635e-05
-2.1024844e-10
1.5986569e-05
-2.1937907e-10
1.5986762e-05
-1.9200476e-10
1.5986908e-05
-1.4603525e-10
1.5987014e-05
-1.0623098e-10
1.5987087e-05
-7.2979889e-11
1.5987136e-05
-4.8941831e-11
1.5987167e-05
-3.171381e-11
1.5987187e-05
-2.0169535e-11
1.59872e-05
-1.2512374e-11
1.5987208e-05
-7.6382667e-12
1.5987212e-05
-4.5663043e-12
1.5987215e-05
-2.6818633e-12
1.5987216e-05
-1.5380597e-12
1.5987217e-05
-8.6240643e-13
1.5987218e-05
-4.7205346e-13
1.5987218e-05
-2.5249335e-13
1.5987218e-05
-1.3006987e-13
1.5987218e-05
-6.250486e-14
1.5987218e-05
-2.6386057e-14
1.5987218e-05
-9.5971856e-15
1.5987218e-05
-3.1488795e-15
1.5987218e-05
-9.7829395e-16
1.5987218e-05
6.1871688e-16
1.5987218e-05
1.7611616e-15
1.5987218e-05
1.9794319e-15
1.5987218e-05
1.8203878e-15
1.5987218e-05
1.4795392e-15
1.5987218e-05
1.3168156e-15
1.5987218e-05
1.2274258e-15
1.5987218e-05
6.0010251e-16
1.5987218e-05
5.515127e-16
1.5987218e-05
1.2894902e-17
1.5987218e-05
-1.5774516e-16
1.5987218e-05
-8.690289e-16
1.5987218e-05
-1.4290464e-15
1.5987218e-05
-1.599132e-15
1.5987218e-05
-1.3578697e-15
1.5987218e-05
-1.1210784e-15
1.5987218e-05
-7.5115923e-16
1.5987218e-05
-7.5363129e-16
1.5987218e-05
-4.4459644e-16
1.5987218e-05
-5.1791796e-16
1.5987218e-05
-4.5931281e-16
1.5987218e-05
-7.3730024e-16
1.5987218e-05
-1.0580846e-15
1.5987218e-05
-1.4844924e-15
1.5987218e-05
-1.6747394e-15
1.5987218e-05
-1.7392075e-15
1.5987218e-05
-1.6135594e-15
1.5987218e-05
-1.4501806e-15
1.5987218e-05
-1.0397324e-15
1.5987218e-05
-1.0993105e-15
1.5987218e-05
-6.4979496e-16
1.5987218e-05
-1.0409486e-15
1.5987218e-05
-8.7970069e-16
1.5987218e-05
-1.3158673e-15
1.5987218e-05
-1.1035205e-15
1.5987218e-05
-1.3522833e-15
1.5987218e-05
-9.6576618e-16
1.5987218e-05
-1.2332788e-15
1.5987218e-05
-8.9309452e-16
1.5987218e-05
-1.2433318e-15
1.5987218e-05
-8.9824382e-16
1.5987218e-05
-1.1897599e-15
1.5987218e-05
-8.0002397e-16
1.5987218e-05
-1.05317e-15
1.5987218e-05
-6.840739e-16
1.5987218e-05
-9.2258107e-16
1.5987218e-05
-6.1032392e-16
1.5987218e-05
-8.4720479e-16
1.5987218e-05
-6.1071135e-16
1.5987218e-05
-8.3693219e-16
1.5987218e-05
-6.2056073e-16
1.5987218e-05
-8.1081279e-16
1.5987218e-05
-6.6111851e-16
1.5987218e-05
-9.1880189e-16
1.5987218e-05
-7.7889241e-16
1.5987218e-05
-9.5817006e-16
1.5987218e-05
-7.3517657e-16
1.5987218e-05
-9.4508804e-16
1.5987218e-05
-6.8008339e-16
1.5987218e-05
-9.1909954e-16
1.5987218e-05
-7.6811343e-16
1.5987218e-05
-1.1641208e-15
1.5987218e-05
-9.8378899e-16
1.5987218e-05
-8.5300845e-16
1.5987218e-05
-5.1305873e-17
1.5987218e-05
4.9215635e-16
1.5987218e-05
1.0731225e-15
1.5987218e-05
1.25604e-15
1.5987218e-05
1.6366745e-15
1.5987218e-05
1.6522016e-15
1.5987218e-05
1.6094936e-15
1.5987218e-05
9.1465302e-16
1.5987218e-05
2.4162115e-16
1.5987218e-05
-7.5262443e-16
1.5987218e-05
-1.2418908e-15
1.5987218e-05
-1.4647924e-15
1.5987218e-05
-1.2694005e-15
1.5987218e-05
-1.1324464e-15
1.5987218e-05
-7.9550333e-16
1.5987218e-05
-5.7378988e-16
1.5987218e-05
-3.5690354e-16
1.5987218e-05
-3.913513e-16
1.5987218e-05
-4.3831645e-16
1.5987218e-05
-6.1977694e-16
1.5987218e-05
-7.0494837e-16
1.5987218e-05
-7.777408e-16
1.5987218e-05
-7.8004987e-16
1.5987218e-05
-8.0003005e-16
1.5987218e-05
-7.8773695e-16
1.5987218e-05
-8.0958115e-16
1.5987218e-05
-7.8954666e-16
1.5987218e-05
-8.1438078e-16
1.5987218e-05
-7.7845411e-16
1.5987218e-05
-8.0058619e-16
1.5987218e-05
-7.4711541e-16
1.5987218e-05
-7.790719e-16
1.5987218e-05
-7.2189101e-16
1.5987218e-05
-7.4735227e-16
1.5987218e-05
-6.9330381e-16
1.5987218e-05
-7.1466243e-16
1.5987218e-05
-6.8299604e-16
1.5987218e-05
-6.9858313e-16
1.5987218e-05
-6.5821874e-16
1.5987218e-05
-6.3920063e-16
1.5987218e-05
-6.4576249e-16
1.5987218e-05
-6.9606335e-16
1.5987218e-05
-7.1398866e-16
1.5987218e-05
-6.1452039e-16
1.5987218e-05
-4.6188915e-16
1.5987218e-05
-4.9411745e-16
1.5987218e-05
-7.7060086e-16
1.5987218e-05
-1.0326431e-15
1.5987218e-05
-1.0877098e-15
1.5987218e-05
-5.5152735e-16
1.5987218e-05
1.7589562e-16
1.5987218e-05
9.6921225e-16
1.5987218e-05
1.39408e-15
1.5987218e-05
1.3468262e-15
1.5987218e-05
1.239992e-15
1.5987218e-05
1.0875811e-15
1.5987218e-05
9.305058e-16
1.5987218e-05
7.8113674e-16
1.5987218e-05
7.2148259e-16
1.5987218e-05
7.4013039e-16
1.5987218e-05
7.1531647e-16
1.5987218e-05
6.8301857e-16
1.5987218e-05
6.6737576e-16
1.5987218e-05
9.3623211e-16
1.5987218e-05
1.1901602e-15
1.5987218e-05
1.2923674e-15
1.5987218e-05
9.1343402e-16
1.5987218e-05
2.3138587e-16
1.5987218e-05
-5.9691515e-16
1.5987218e-05
-1.1325053e-15
1.5987218e-05
-1.3938643e-15
1.5987218e-05
-1.1553754e-15
1.5987218e-05
-1.0970674e-15
1.5987218e-05
-8.3133916e-16
1.5987218e-05
-7.5191795e-16
1.5987218e-05
-5.7398193e-16
1.5987218e-05
-5.5759504e-16
1.5987218e-05
-5.0220902e-16
1.5987218e-05
-6.4843379e-16
1.5987218e-05
-6.7615747e-16
1.5987218e-05
-7.4814241e-16
1.5987218e-05
-5.3619031e-16
1.5987218e-05
-5.4370157e-16
1.5987218e-05
-6.9222449e-16
1.5987218e-05
-1.1082699e-15
1.5987218e-05
-1.2497932e-15
1.5987218e-05
-1.1390549e-15
1.5987218e-05
-3.8214012e-16
1.5987218e-05
3.895048e-16
1.5987218e-05
1.0411099e-15
1.5987218e-05
1.2491759e-15
1.5987218e-05
9.4830109e-16
1.5987218e-05
7.2961076e-16
1.5987218e-05
5.5991598e-16
1.5987218e-05
6.6192511e-16
1.5987218e-05
7.7619966e-16
1.5987218e-05
8.0985024e-16
1.5987218e-05
4.8307053e-16
1.5987218e-05
-1.1533027e-16
1.5987218e-05
-9.7936432e-16
1.5987218e-05
-1.6388532e-15
1.5987218e-05
-1.8863372e-15
1.5987218e-05
-1.4808194e-15
1.5987218e-05
-8.4350367e-16
1.5987218e-05
1.5118476e-16
1.5987218e-05
1.2215696e-15
1.5987218e-05
1.9329751e-15
1.5987218e-05
1.9298835e-15
1.5987218e-05
1.345811e-15
1.5987218e-05
3.5144398e-16
1.5987218e-05
-6.7543988e-16
1.5987218e-05
-1.278322e-15
1.5987218e-05
-1.3151063e-15
1.5987218e-05
-1.1478526e-15
1.5987218e-05
-1.1014587e-15
1.5987218e-05
-1.1867635e-15
1.5987218e-05
-1.1727741e-15
1.5987218e-05
-7.7889616e-16
1.5987218e-05
-3.961577e-17
1.5987218e-05
1.1011328e-15
1.5987218e-05
1.72683e-15
1.5987218e-05
1.4581713e-15
1.5987218e-05
7.8545891e-16
1.5987218e-05
-8.0759152e-17
1.5987218e-05
-9.4187496e-16
1.5987218e-05
-1.5376522e-15
1.5987218e-05
-1.931716e-15
1.5987218e-05
-1.5811491e-15
1.5987218e-05
-8.7541287e-16
1.5987218e-05
2.0089756e-16
1.5987218e-05
1.0084668e-15
1.5987218e-05
1.2318437e-15
1.5987218e-05
1.1862454e-15
1.5987218e-05
1.1011917e-15
1.5987218e-05
1.2499898e-15
1.5987218e-05
1.2228846e-15
1.5987218e-05
9.1265768e-16
1.5987218e-05
1.1576583e-16
1.5987218e-05
-9.6223278e-16
1.5987218e-05
-1.7217837e-15
1.5987218e-05
-1.7468038e-15
1.5987218e-05
-1.006747e-15
1.5987218e-05
-3.1805027e-17
1.5987218e-05
9.8187399e-16
1.5987218e-05
1.7103546e-15
1.5987218e-05
1.618904e-15
1.5987218e-05
1.1597706e-15
1.5987218e-05
2.5022806e-17
1.5987218e-05
-1.1586617e-15
1.5987218e-05
-1.8183368e-15
1.5987218e-05
-1.4789055e-15
1.5987218e-05
-6.2963478e-16
1.5987218e-05
5.7071824e-16
1.5987218e-05
1.5110709e-15
1.5987218e-05
1.7136636e-15
1.5987218e-05
1.2156585e-15
1.5987218e-05
2.2155754e-16
1.5987218e-05
-9.674637e-16
1.5987218e-05
-1.6485382e-15
1.5987218e-05
-1.5574471e-15
1.5987218e-05
-9.5715517e-16
1.5987218e-05
-8.8723712e-17
1.5987218e-05
9.2066462e-16
1.5987218e-05
1.6849125e-15
1.5987218e-05
1.8768413e-15
1.5987218e-05
1.5655044e-15
1.5987218e-05
7.346912e-16
1.5987218e-05
-3.6833021e-16
1.5987218e-05
-1.4218792e-15
1.5987218e-05
-1.9149517e-15
1.5987218e-05
-1.6456765e-15
1.5987218e-05
-6.376112e-16
1.5987218e-05
5.8376557e-16
1.5987218e-05
1.6280573e-15
1.5987218e-05
1.6259642e-15
1.5987218e-05
5.2578134e-16
1.5987218e-05
-7.7193217e-16
1.5987218e-05
-1.4531919e-15
1.5987218e-05
-1.0761828e-15
1.5987218e-05
1.0450839e-16
1.5987218e-05
1.0430934e-15
1.5987218e-05
1.0597818e-15
1.5987218e-05
5.9565869e-16
1.5987218e-05
-1.9831181e-16
1.5987218e-05
-7.8254731e-16
1.5987218e-05
-1.087654e-15
1.5987218e-05
-1.2525299e-15
1.5987218e-05
-1.2803219e-15
1.5987218e-05
-1.0445814e-15
1.5987218e-05
-5.8734915e-16
1.5987218e-05
-5.5830534e-16
1.5987218e-05
-1.1418083e-15
1.5987218e-05
-1.2928687e-15
1.5987218e-05
-1.0774174e-16
7.6146516e-16
0.00014027132
0.00033219464
9.2549245e-05
7.5871573e-05
7.0338073e-05
3.0330341e-05
5.9620313e-05
1.4898949e-05
5.4019642e-05
7.4663569e-06
5.0795343e-05
4.4027877e-06
4.901105e-05
2.3763363e-06
4.7964745e-05
1.4156452e-06
4.7384384e-05
7.7184036e-07
4.7052234e-05
4.462668e-07
4.6872682e-05
2.3796176e-07
4.677453e-05
1.3092336e-07
4.6724186e-05
6.627076e-08
4.6698685e-05
3.3667773e-08
4.6686924e-05
1.525086e-08
4.6681893e-05
6.4844572e-09
4.6680252e-05
1.9936109e-09
4.6680058e-05
1.4795069e-10
4.6680445e-05
-5.9674245e-10
4.6680961e-05
-7.3595599e-10
4.6681443e-05
-6.7355646e-10
4.6681826e-05
-5.2957153e-10
4.668211e-05
-3.9049318e-10
4.6682309e-05
-2.7215299e-10
4.6682444e-05
-1.8376748e-10
4.6682532e-05
-1.2012047e-10
4.6682589e-05
-7.6828792e-11
4.6682624e-05
-4.8010277e-11
4.6682646e-05
-2.9473266e-11
4.6682659e-05
-1.7735528e-11
4.6682667e-05
-1.0480878e-11
4.6682672e-05
-6.0660556e-12
4.6682674e-05
-3.4420543e-12
4.6682676e-05
-1.9099973e-12
4.6682676e-05
-1.0343603e-12
4.6682677e-05
-5.4149281e-13
4.6682677e-05
-2.6927263e-13
4.6682677e-05
-1.2439242e-13
4.6682677e-05
-5.1860664e-14
4.6682677e-05
-1.8735705e-14
4.6682677e-05
-4.3877159e-15
4.6682677e-05
2.047408e-15
4.6682677e-05
4.9157814e-15
4.6682677e-05
4.7780251e-15
4.6682677e-05
3.3266231e-15
4.6682677e-05
1.8589982e-15
4.6682677e-05
1.6546226e-15
4.6682677e-05
1.920019e-15
4.6682677e-05
3.1171316e-15
4.6682677e-05
2.9836439e-15
4.6682677e-05
2.8521147e-15
4.6682677e-05
2.0691294e-15
4.6682677e-05
1.5066056e-15
4.6682677e-05
-9.7952601e-18
4.6682677e-05
-8.2547117e-16
4.6682677e-05
-1.3919319e-15
4.6682677e-05
-1.5043027e-15
4.6682677e-05
-2.166636e-15
4.6682677e-05
-1.6490698e-15
4.6682677e-05
-2.3108052e-15
4.6682677e-05
-1.686482e-15
4.6682677e-05
-2.2044722e-15
4.6682677e-05
-1.8427552e-15
4.6682677e-05
-2.6368119e-15
4.6682677e-05
-2.4877962e-15
4.6682677e-05
-2.8306452e-15
4.6682677e-05
-2.7240848e-15
4.6682677e-05
-2.9364397e-15
4.6682677e-05
-2.9213957e-15
4.6682677e-05
-2.8923725e-15
4.6682677e-05
-2.6249834e-15
4.6682677e-05
-2.609017e-15
4.6682677e-05
-2.7212424e-15
4.6682677e-05
-2.8990787e-15
4.6682677e-05
-3.1019609e-15
4.6682677e-05
-3.0580237e-15
4.6682677e-05
-3.0911157e-15
4.6682677e-05
-2.8330852e-15
4.6682677e-05
-2.9792673e-15
4.6682677e-05
-2.7654482e-15
4.6682677e-05
-3.0070205e-15
4.6682677e-05
-2.699929e-15
4.6682677e-05
-2.8604986e-15
4.6682677e-05
-2.4571707e-15
4.6682677e-05
-2.6105942e-15
4.6682677e-05
-2.2275273e-15
4.6682677e-05
-2.4165432e-15
4.6682677e-05
-2.0934177e-15
4.6682677e-05
-2.3177217e-15
4.6682677e-05
-2.0826085e-15
4.6682677e-05
-2.3486807e-15
4.6682677e-05
-2.1548943e-15
4.6682677e-05
-2.3965363e-15
4.6682677e-05
-2.2538789e-15
4.6682677e-05
-2.5960413e-15
4.6682677e-05
-2.496819e-15
4.6682677e-05
-2.7504033e-15
4.6682677e-05
-2.497158e-15
4.6682677e-05
-2.7198912e-15
4.6682677e-05
-2.3800194e-15
4.6682677e-05
-2.5325057e-15
4.6682677e-05
-2.2326803e-15
4.6682677e-05
-2.744146e-15
4.6682677e-05
-2.5245323e-15
4.6682677e-05
-2.4607281e-15
4.6682677e-05
-1.5159512e-15
4.6682677e-05
-8.6562442e-16
4.6682677e-05
7.9774917e-17
4.6682677e-05
6.7003519e-16
4.6682677e-05
1.7935738e-15
4.6682677e-05
2.9256979e-15
4.6682677e-05
3.65488e-15
4.6682677e-05
3.2518484e-15
4.6682677e-05
2.4209203e-15
4.6682677e-05
8.2742904e-16
4.6682677e-05
-5.5159388e-16
4.6682677e-05
-2.0170172e-15
4.6682677e-05
-2.4395306e-15
4.6682677e-05
-2.6661463e-15
4.6682677e-05
-2.3206466e-15
4.6682677e-05
-2.121842e-15
4.6682677e-05
-1.9365192e-15
4.6682677e-05
-2.0797797e-15
4.6682677e-05
-2.1776041e-15
4.6682677e-05
-2.4331513e-15
4.6682677e-05
-2.5074292e-15
4.6682677e-05
-2.5831446e-15
4.6682677e-05
-2.5445382e-15
4.6682677e-05
-2.5674117e-15
4.6682677e-05
-2.5206333e-15
4.6682677e-05
-2.5492644e-15
4.6682677e-05
-2.4879598e-15
4.6682677e-05
-2.5144332e-15
4.6682677e-05
-2.4317387e-15
4.6682677e-05
-2.4552033e-15
4.6682677e-05
-2.3698531e-15
4.6682677e-05
-2.4038422e-15
4.6682677e-05
-2.3214271e-15
4.6682677e-05
-2.3524284e-15
4.6682677e-05
-2.2724362e-15
4.6682677e-05
-2.3002069e-15
4.6682677e-05
-2.2517982e-15
4.6682677e-05
-2.2847049e-15
4.6682677e-05
-2.2290065e-15
4.6682677e-05
-2.2192204e-15
4.6682677e-05
-2.1911298e-15
4.6682677e-05
-2.2626332e-15
4.6682677e-05
-2.3046977e-15
4.6682677e-05
-2.2527797e-15
4.6682677e-05
-2.0584794e-15
4.6682677e-05
-1.9882427e-15
4.6682677e-05
-2.2806546e-15
4.6682677e-05
-2.8211137e-15
4.6682677e-05
-3.0613743e-15
4.6682677e-05
-2.7317205e-15
4.6682677e-05
-1.7573532e-15
4.6682677e-05
-3.5218419e-16
4.6682677e-05
9.8318331e-16
4.6682677e-05
2.0365972e-15
4.6682677e-05
2.4821039e-15
4.6682677e-05
2.5837595e-15
4.6682677e-05
2.4726558e-15
4.6682677e-05
2.3435872e-15
4.6682677e-05
2.2720524e-15
4.6682677e-05
2.3712483e-15
4.6682677e-05
2.3954895e-15
4.6682677e-05
2.3471006e-15
4.6682677e-05
2.2546143e-15
4.6682677e-05
2.4831048e-15
4.6682677e-05
2.886071e-15
4.6682677e-05
3.3345596e-15
4.6682677e-05
3.0261335e-15
4.6682677e-05
2.3230645e-15
4.6682677e-05
1.0522632e-15
4.6682677e-05
-3.5507455e-16
4.6682677e-05
-1.5694273e-15
4.6682677e-05
-2.1936741e-15
4.6682677e-05
-2.4535549e-15
4.6682677e-05
-2.3076183e-15
4.6682677e-05
-2.2364833e-15
4.6682677e-05
-2.0459014e-15
4.6682677e-05
-2.0971182e-15
4.6682677e-05
-2.0226444e-15
4.6682677e-05
-2.2102158e-15
4.6682677e-05
-2.2500445e-15
4.6682677e-05
-2.3854242e-15
4.6682677e-05
-2.1444213e-15
4.6682677e-05
-2.0886798e-15
4.6682677e-05
-2.1213084e-15
4.6682677e-05
-2.6780736e-15
4.6682677e-05
-3.1813693e-15
4.6682677e-05
-3.2391386e-15
4.6682677e-05
-2.5545904e-15
4.6682677e-05
-1.3626592e-15
4.6682677e-05
8.5787422e-17
4.6682677e-05
1.3078813e-15
4.6682677e-05
1.9895672e-15
4.6682677e-05
2.0633648e-15
4.6682677e-05
1.8906443e-15
4.6682677e-05
2.0550579e-15
4.6682677e-05
2.4079163e-15
4.6682677e-05
2.6677782e-15
4.6682677e-05
2.6252959e-15
4.6682677e-05
1.8713727e-15
4.6682677e-05
5.7470031e-16
4.6682677e-05
-9.9774832e-16
4.6682677e-05
-2.5638383e-15
4.6682677e-05
-3.0584553e-15
4.6682677e-05
-2.6905117e-15
4.6682677e-05
-1.5890214e-15
4.6682677e-05
-1.9059145e-17
4.6682677e-05
1.8761696e-15
4.6682677e-05
3.1912617e-15
4.6682677e-05
3.2809126e-15
4.6682677e-05
2.2361159e-15
4.6682677e-05
7.1678803e-16
4.6682677e-05
-9.0643218e-16
4.6682677e-05
-1.8805103e-15
4.6682677e-05
-2.2286456e-15
4.6682677e-05
-2.3525965e-15
4.6682677e-05
-2.623687e-15
4.6682677e-05
-2.9466461e-15
4.6682677e-05
-2.8174779e-15
4.6682677e-05
-2.1600248e-15
4.6682677e-05
-5.1408618e-16
4.6682677e-05
1.2079885e-15
4.6682677e-05
2.531081e-15
4.6682677e-05
2.3160699e-15
4.6682677e-05
1.4197907e-15
4.6682677e-05
7.4079144e-17
4.6682677e-05
-1.6083442e-15
4.6682677e-05
-3.0171316e-15
4.6682677e-05
-3.5830351e-15
4.6682677e-05
-2.9246216e-15
4.6682677e-05
-1.552007e-15
4.6682677e-05
-2.7585904e-16
4.6682677e-05
1.1334313e-15
4.6682677e-05
1.760707e-15
4.6682677e-05
2.1565559e-15
4.6682677e-05
2.5426364e-15
4.6682677e-05
2.9784188e-15
4.6682677e-05
2.8233497e-15
4.6682677e-05
2.2255942e-15
4.6682677e-05
6.9181467e-16
4.6682677e-05
-1.2137734e-15
4.6682677e-05
-2.5534326e-15
4.6682677e-05
-2.7661258e-15
4.6682677e-05
-1.7626689e-15
4.6682677e-05
-2.4243055e-16
4.6682677e-05
1.6564044e-15
4.6682677e-05
2.9827063e-15
4.6682677e-05
3.0646111e-15
4.6682677e-05
1.8946761e-15
4.6682677e-05
1.6878914e-16
4.6682677e-05
-1.9430259e-15
4.6682677e-05
-2.8419962e-15
4.6682677e-05
-2.4016043e-15
4.6682677e-05
-8.2014253e-16
4.6682677e-05
9.8145349e-16
4.6682677e-05
2.583563e-15
4.6682677e-05
3.0023418e-15
4.6682677e-05
2.0589254e-15
4.6682677e-05
3.2518112e-16
4.6682677e-05
-1.6342079e-15
4.6682677e-05
-2.8837435e-15
4.6682677e-05
-2.7382651e-15
4.6682677e-05
-1.7975134e-15
4.6682677e-05
-2.5423309e-16
4.6682677e-05
1.5677735e-15
4.6682677e-05
2.9294799e-15
4.6682677e-05
3.4462536e-15
4.6682677e-05
2.6545693e-15
4.6682677e-05
1.2565141e-15
4.6682677e-05
-3.8407494e-16
4.6682677e-05
-2.3453771e-15
4.6682677e-05
-3.2239051e-15
4.6682677e-05
-2.6569348e-15
4.6682677e-05
-1.1032865e-15
4.6682677e-05
1.1162522e-15
4.6682677e-05
2.5166409e-15
4.6682677e-05
2.238051e-15
4.6682677e-05
6.2422391e-16
4.6682677e-05
-1.5205258e-15
4.6682677e-05
-2.3785065e-15
4.6682677e-05
-1.4511664e-15
4.6682677e-05
8.4955671e-17
4.6682677e-05
1.7009826e-15
4.6682677e-05
1.9509305e-15
4.6682677e-05
1.166113e-15
4.6682677e-05
6.5664886e-18
4.6682677e-05
-1.3825162e-15
4.6682677e-05
-2.2777451e-15
4.6682677e-05
-2.7968503e-15
4.6682677e-05
-2.7047603e-15
4.6682677e-05
-2.0628962e-15
4.6682677e-05
-1.7811464e-15
4.6682677e-05
-2.6022122e-15
4.6682677e-05
-3.3774553e-15
4.6682677e-05
-2.4081838e-15
-5.0301211e-16
0.00019469214
0.0004041693
0.00014360962
0.0001269541
0.00011230147
6.163847e-05
9.6619294e-05
3.0581114e-05
8.776222e-05
1.632342e-05
8.2755405e-05
9.4095989e-06
7.9871701e-05
5.2600457e-06
7.8206034e-05
3.0813216e-06
7.7256668e-05
1.7212147e-06
7.6718195e-05
9.8474736e-07
7.6420463e-05
5.3569636e-07
7.6258218e-05
2.9316621e-07
7.6172993e-05
1.5149186e-07
7.61296e-05
7.7056119e-08
7.6108851e-05
3.5996261e-08
7.6099695e-05
1.5637988e-08
7.6096324e-05
5.36367e-09
7.6095587e-05
8.8468142e-10
7.6095937e-05
-9.4575497e-10
7.6096611e-05
-1.410269e-09
7.609729e-05
-1.3526038e-09
7.6097854e-05
-1.0927754e-09
7.609828e-05
-8.1641755e-10
7.6098584e-05
-5.7551556e-10
7.6098791e-05
-3.9136699e-10
7.6098929e-05
-2.5768713e-10
7.6099018e-05
-1.6571236e-10
7.6099074e-05
-1.041516e-10
7.6099108e-05
-6.4235966e-11
7.609913e-05
-3.8858366e-11
7.6099142e-05
-2.3087684e-11
7.609915e-05
-1.3450701e-11
7.6099154e-05
-7.6809466e-12
7.6099156e-05
-4.29053e-12
7.6099157e-05
-2.3390358e-12
7.6099158e-05
-1.2362407e-12
7.6099158e-05
-6.2619691e-13
7.6099159e-05
-2.9776012e-13
7.6099159e-05
-1.2955979e-13
7.6099159e-05
-4.8568194e-14
7.6099159e-05
-1.2170471e-14
7.6099159e-05
3.9628651e-15
7.6099159e-05
1.0097427e-14
7.6099159e-05
1.1152698e-14
7.6099159e-05
9.5429557e-15
7.6099159e-05
7.4087945e-15
7.6099159e-05
5.6967954e-15
7.6099159e-05
4.4426447e-15
7.6099159e-05
2.8361767e-15
7.6099159e-05
2.3453654e-15
7.6099159e-05
1.4188115e-15
7.6099159e-05
8.2915081e-16
7.6099159e-05
-2.022934e-16
7.6099159e-05
-1.200474e-15
7.6099159e-05
-1.5335735e-15
7.6099159e-05
-1.5910261e-15
7.6099159e-05
-1.4126022e-15
7.6099159e-05
-1.2855892e-15
7.6099159e-05
-1.3016121e-15
7.6099159e-05
-1.0557998e-15
7.6099159e-05
-1.0842104e-15
7.6099159e-05
-1.1780035e-15
7.6099159e-05
-1.4352882e-15
7.6099159e-05
-1.9708216e-15
7.6099159e-05
-2.4275773e-15
7.6099159e-05
-2.8504492e-15
7.6099159e-05
-2.9049079e-15
7.6099159e-05
-2.9365455e-15
7.6099159e-05
-2.6540914e-15
7.6099159e-05
-2.1838175e-15
7.6099159e-05
-2.161814e-15
7.6099159e-05
-1.6140693e-15
7.6099159e-05
-2.095381e-15
7.6099159e-05
-1.9124187e-15
7.6099159e-05
-2.475629e-15
7.6099159e-05
-2.1872632e-15
7.6099159e-05
-2.5381836e-15
7.6099159e-05
-1.9805374e-15
7.6099159e-05
-2.3639612e-15
7.6099159e-05
-1.828838e-15
7.6099159e-05
-2.328433e-15
7.6099159e-05
-1.7433506e-15
7.6099159e-05
-2.1652894e-15
7.6099159e-05
-1.4897859e-15
7.6099159e-05
-1.864594e-15
7.6099159e-05
-1.2172762e-15
7.6099159e-05
-1.5859598e-15
7.6099159e-05
-1.0418097e-15
7.6099159e-05
-1.4358791e-15
7.6099159e-05
-1.0450235e-15
7.6099159e-05
-1.4564044e-15
7.6099159e-05
-1.141494e-15
7.6099159e-05
-1.5260515e-15
7.6099159e-05
-1.3145071e-15
7.6099159e-05
-1.8146786e-15
7.6099159e-05
-1.6221643e-15
7.6099159e-05
-2.0100207e-15
7.6099159e-05
-1.655033e-15
7.6099159e-05
-2.0426588e-15
7.6099159e-05
-1.5255061e-15
7.6099159e-05
-1.8548007e-15
7.6099159e-05
-1.4232776e-15
7.6099159e-05
-1.9815227e-15
7.6099159e-05
-1.5864097e-15
7.6099159e-05
-1.3271649e-15
7.6099159e-05
-4.2697627e-17
7.6099159e-05
6.8080382e-16
7.6099159e-05
1.6024337e-15
7.6099159e-05
1.8615439e-15
7.6099159e-05
2.5993477e-15
7.6099159e-05
2.880568e-15
7.6099159e-05
3.0608391e-15
7.6099159e-05
2.1265877e-15
7.6099159e-05
1.1076751e-15
7.6099159e-05
-5.4705902e-16
7.6099159e-05
-1.41239e-15
7.6099159e-05
-2.0897392e-15
7.6099159e-05
-2.0945951e-15
7.6099159e-05
-2.0702763e-15
7.6099159e-05
-1.6196245e-15
7.6099159e-05
-1.3821901e-15
7.6099159e-05
-1.0728103e-15
7.6099159e-05
-1.1574445e-15
7.6099159e-05
-1.2220675e-15
7.6099159e-05
-1.4665235e-15
7.6099159e-05
-1.5627657e-15
7.6099159e-05
-1.6566863e-15
7.6099159e-05
-1.6467243e-15
7.6099159e-05
-1.6653547e-15
7.6099159e-05
-1.6316771e-15
7.6099159e-05
-1.6496455e-15
7.6099159e-05
-1.5913198e-15
7.6099159e-05
-1.6105621e-15
7.6099159e-05
-1.5197225e-15
7.6099159e-05
-1.5384434e-15
7.6099159e-05
-1.4348315e-15
7.6099159e-05
-1.4669366e-15
7.6099159e-05
-1.3654791e-15
7.6099159e-05
-1.3916335e-15
7.6099159e-05
-1.2972181e-15
7.6099159e-05
-1.3241323e-15
7.6099159e-05
-1.2708769e-15
7.6099159e-05
-1.293561e-15
7.6099159e-05
-1.2335264e-15
7.6099159e-05
-1.2179352e-15
7.6099159e-05
-1.2160661e-15
7.6099159e-05
-1.2868057e-15
7.6099159e-05
-1.3182536e-15
7.6099159e-05
-1.2147313e-15
7.6099159e-05
-1.0379252e-15
7.6099159e-05
-1.0780225e-15
7.6099159e-05
-1.5016304e-15
7.6099159e-05
-1.913192e-15
7.6099159e-05
-2.0331738e-15
7.6099159e-05
-1.2343943e-15
7.6099159e-05
-1.8117312e-16
7.6099159e-05
1.0305364e-15
7.6099159e-05
1.8142885e-15
7.6099159e-05
2.0217847e-15
7.6099159e-05
2.1007887e-15
7.6099159e-05
1.9505603e-15
7.6099159e-05
1.742688e-15
7.6099159e-05
1.5211092e-15
7.6099159e-05
1.4244163e-15
7.6099159e-05
1.4440048e-15
7.6099159e-05
1.4233724e-15
7.6099159e-05
1.3994899e-15
7.6099159e-05
1.3627231e-15
7.6099159e-05
1.770272e-15
7.6099159e-05
2.1818401e-15
7.6099159e-05
2.3809517e-15
7.6099159e-05
1.8904383e-15
7.6099159e-05
8.823197e-16
7.6099159e-05
-3.7676435e-16
7.6099159e-05
-1.2371408e-15
7.6099159e-05
-1.8738e-15
7.6099159e-05
-1.7868056e-15
7.6099159e-05
-1.852228e-15
7.6099159e-05
-1.4930435e-15
7.6099159e-05
-1.4073992e-15
7.6099159e-05
-1.1366079e-15
7.6099159e-05
-1.1681565e-15
7.6099159e-05
-1.062358e-15
7.6099159e-05
-1.2876028e-15
7.6099159e-05
-1.2906438e-15
7.6099159e-05
-1.4414726e-15
7.6099159e-05
-1.1416507e-15
7.6099159e-05
-1.1837905e-15
7.6099159e-05
-1.3418715e-15
7.6099159e-05
-2.0303132e-15
7.6099159e-05
-2.2576421e-15
7.6099159e-05
-2.1498871e-15
7.6099159e-05
-1.058068e-15
7.6099159e-05
3.5850828e-17
7.6099159e-05
1.0917808e-15
7.6099159e-05
1.5959083e-15
7.6099159e-05
1.4648494e-15
7.6099159e-05
1.2662775e-15
7.6099159e-05
1.0817659e-15
7.6099159e-05
1.2786178e-15
7.6099159e-05
1.5005674e-15
7.6099159e-05
1.6020333e-15
7.6099159e-05
1.0968005e-15
7.6099159e-05
2.8331071e-16
7.6099159e-05
-1.0261545e-15
7.6099159e-05
-2.0968535e-15
7.6099159e-05
-2.7625186e-15
7.6099159e-05
-2.4854911e-15
7.6099159e-05
-1.6524862e-15
7.6099159e-05
-2.0363122e-16
7.6099159e-05
1.3949498e-15
7.6099159e-05
2.6531484e-15
7.6099159e-05
3.0758322e-15
7.6099159e-05
2.4037202e-15
7.6099159e-05
1.0219217e-15
7.6099159e-05
-5.0899888e-16
7.6099159e-05
-1.5268898e-15
7.6099159e-05
-1.8344042e-15
7.6099159e-05
-1.8251551e-15
7.6099159e-05
-1.8493553e-15
7.6099159e-05
-2.0494039e-15
7.6099159e-05
-2.1203711e-15
7.6099159e-05
-1.5093197e-15
7.6099159e-05
-4.4525205e-16
7.6099159e-05
1.241092e-15
7.6099159e-05
2.2889405e-15
7.6099159e-05
2.3072235e-15
7.6099159e-05
1.4717697e-15
7.6099159e-05
2.663788e-16
7.6099159e-05
-1.0496386e-15
7.6099159e-05
-2.0740314e-15
7.6099159e-05
-3.0221691e-15
7.6099159e-05
-2.7099202e-15
7.6099159e-05
-1.8442017e-15
7.6099159e-05
-2.3831043e-16
7.6099159e-05
9.9422054e-16
7.6099159e-05
1.4983714e-15
7.6099159e-05
1.6882213e-15
7.6099159e-05
1.7833878e-15
7.6099159e-05
2.1166347e-15
7.6099159e-05
2.1688674e-15
7.6099159e-05
1.7482267e-15
7.6099159e-05
5.3097934e-16
7.6099159e-05
-1.0473627e-15
7.6099159e-05
-2.2898753e-15
7.6099159e-05
-2.6967549e-15
7.6099159e-05
-1.8547536e-15
7.6099159e-05
-5.4598559e-16
7.6099159e-05
9.6310034e-16
7.6099159e-05
2.2667924e-15
7.6099159e-05
2.5505738e-15
7.6099159e-05
2.0765085e-15
7.6099159e-05
4.5258419e-16
7.6099159e-05
-1.2717815e-15
7.6099159e-05
-2.4611818e-15
7.6099159e-05
-2.3812937e-15
7.6099159e-05
-1.2860245e-15
7.6099159e-05
4.7449669e-16
7.6099159e-05
1.9413453e-15
7.6099159e-05
2.604147e-15
7.6099159e-05
2.1552552e-15
7.6099159e-05
7.891974e-16
7.6099159e-05
-9.7174679e-16
7.6099159e-05
-2.1815514e-15
7.6099159e-05
-2.482861e-15
7.6099159e-05
-1.7414834e-15
7.6099159e-05
-5.1485161e-16
7.6099159e-05
9.8611332e-16
7.6099159e-05
2.2648028e-15
7.6099159e-05
2.9007756e-15
7.6099159e-05
2.7097933e-15
7.6099159e-05
1.5814393e-15
7.6099159e-05
-3.9038406e-17
7.6099159e-05
-1.7178094e-15
7.6099159e-05
-2.7109571e-15
7.6099159e-05
-2.7552701e-15
7.6099159e-05
-1.3636165e-15
7.6099159e-05
4.0853524e-16
7.6099159e-05
2.0514479e-15
7.6099159e-05
2.4225492e-15
7.6099159e-05
9.8813805e-16
7.6099159e-05
-8.4637058e-16
7.6099159e-05
-1.9739433e-15
7.6099159e-05
-1.7911341e-15
7.6099159e-05
-1.4911105e-16
7.6099159e-05
1.2515024e-15
7.6099159e-05
1.5570799e-15
7.6099159e-05
1.1214041e-15
7.6099159e-05
1.3858767e-17
7.6099159e-05
-8.6477922e-16
7.6099159e-05
-1.4805788e-15
7.6099159e-05
-1.9705026e-15
7.6099159e-05
-2.1405924e-15
7.6099159e-05
-1.8584114e-15
7.6099159e-05
-1.1904707e-15
7.6099159e-05
-1.1384703e-15
7.6099159e-05
-2.0743652e-15
7.6099159e-05
-2.3430084e-15
7.6099159e-05
-5.6885222e-16
8.2329945e-16
0.00023312986
0.00043770624
0.00018548527
0.00017459869
0.00015018421
9.6939517e-05
0.0001310242
4.9741114e-05
0.00011965162
2.7695991e-05
0.0001131446
1.591662e-05
0.00010931814
9.0865114e-06
0.00010710183
5.2976399e-06
0.00010582149
3.0015597e-06
0.00010509347
1.7127806e-06
0.00010468612
9.4304338e-07
0.00010446306
5.1622233e-07
0.00010434425
2.7030197e-07
0.00010428311
1.3818737e-07
0.00010425319
6.591234e-08
0.00010423959
2.9235424e-08
0.0001042342
1.0754346e-08
0.00010423268
2.406408e-09
0.00010423281
-1.079812e-09
0.00010423352
-2.1159083e-09
0.00010423431
-2.1441327e-09
0.000104235
-1.779523e-09
0.00010423553
-1.348245e-09
0.00010423592
-9.6059953e-10
0.00010423618
-6.5785831e-10
0.00010423636
-4.359255e-10
0.00010423648
-2.8172203e-10
0.00010423655
-1.7791811e-10
0.0001042366
-1.1018944e-10
0.00010423662
-6.6943382e-11
0.00010423664
-3.9940267e-11
0.00010423665
-2.3376216e-11
0.00010423666
-1.3414501e-11
0.00010423666
-7.5331733e-12
0.00010423666
-4.1311707e-12
0.00010423666
-2.200397e-12
0.00010423666
-1.1265701e-12
0.00010423666
-5.4512641e-13
0.00010423666
-2.4326934e-13
0.00010423666
-9.5294397e-14
0.00010423666
-2.7023793e-14
0.00010423666
3.3465099e-15
0.00010423666
1.5587698e-14
0.00010423666
1.8456301e-14
0.00010423666
1.6874978e-14
0.00010423666
1.3661485e-14
0.00010423666
1.0436341e-14
0.00010423666
6.5125078e-15
0.00010423666
3.4952504e-15
0.00010423666
1.0190058e-15
0.00010423666
4.0943757e-16
0.00010423666
-6.5542689e-16
0.00010423666
-8.7655035e-16
0.00010423666
-1.6024501e-15
0.00010423666
-1.2760436e-15
0.00010423666
-1.1812915e-15
0.00010423666
-8.5694468e-16
0.00010423666
-1.2954327e-15
0.00010423666
-3.5304138e-16
0.00010423666
-8.9648438e-16
0.00010423666
-1.911407e-16
0.00010423666
-1.0577463e-15
0.00010423666
-7.9584829e-16
0.00010423666
-1.845175e-15
0.00010423666
-1.893633e-15
0.00010423666
-2.5725337e-15
0.00010423666
-2.4191144e-15
0.00010423666
-2.4768371e-15
0.00010423666
-2.0868623e-15
0.00010423666
-1.8634773e-15
0.00010423666
-1.3624313e-15
0.00010423666
-1.2310216e-15
0.00010423666
-1.269009e-15
0.00010423666
-1.462831e-15
0.00010423666
-1.7909132e-15
0.00010423666
-1.7898227e-15
0.00010423666
-1.9524454e-15
0.00010423666
-1.5440166e-15
0.00010423666
-1.7180181e-15
0.00010423666
-1.2968873e-15
0.00010423666
-1.6482491e-15
0.00010423666
-1.157087e-15
0.00010423666
-1.4639296e-15
0.00010423666
-8.2763145e-16
0.00010423666
-1.0893912e-15
0.00010423666
-4.4063726e-16
0.00010423666
-7.2104181e-16
0.00010423666
-1.7628953e-16
0.00010423666
-5.3104506e-16
0.00010423666
-1.7053699e-16
0.00010423666
-5.8765711e-16
0.00010423666
-3.1730052e-16
0.00010423666
-7.229652e-16
0.00010423666
-5.8176079e-16
0.00010423666
-1.1502529e-15
0.00010423666
-1.0031291e-15
0.00010423666
-1.4469489e-15
0.00010423666
-1.1464934e-15
0.00010423666
-1.5790429e-15
0.00010423666
-1.0979097e-15
0.00010423666
-1.3934151e-15
0.00010423666
-8.8273879e-16
0.00010423666
-1.4293046e-15
0.00010423666
-7.6808661e-16
0.00010423666
-3.4385108e-16
0.00010423666
1.3545343e-15
0.00010423666
2.2394285e-15
0.00010423666
3.0869622e-15
0.00010423666
3.1586462e-15
0.00010423666
3.4702434e-15
0.00010423666
3.3356534e-15
0.00010423666
2.8790191e-15
0.00010423666
1.538206e-15
0.00010423666
5.6323102e-17
0.00010423666
-1.6106345e-15
0.00010423666
-2.0483131e-15
0.00010423666
-2.4079369e-15
0.00010423666
-2.0142436e-15
0.00010423666
-1.8352952e-15
0.00010423666
-1.2009543e-15
0.00010423666