/*--------------------------------*- C++ -*----------------------------------*\
| =========                 |                                                 |
| \\      /  F ield         | OpenFOAM: The Open Source CFD Toolbox           |
|  \\    /   O peration     | Version:  2206                                  |
|   \\  /    A nd           | Website:  www.openfoam.com                      |
|    \\/     M anipulation  |                                                 |
\*---------------------------------------------------------------------------*/
FoamFile
{
    version     2.0;
    format      ascii;
    arch        "LSB;label=32;scalar=64";
    class       volVectorField;
    location    "3";
    object      U;
}
// * * * * * * * * * * * * * * * * * * * * * * * * * * * * * * * * * * * * * //

dimensions      [0 1 -1 0 0 0 0];

internalField   nonuniform List<vector> 
15000
(
(0.15962853 0.053997679 0)
(0.11557193 0.006491642 0)
(0.064251364 0.0014144206 0)
(0.055918599 0.00074959986 0)
(0.047595815 0.0002882685 0)
(0.044708797 0.00019884424 0)
(0.042412494 9.0523965e-05 0)
(0.041406638 6.0129899e-05 0)
(0.040707477 2.8980633e-05 0)
(0.040376991 1.8019895e-05 0)
(0.040167798 8.6613097e-06 0)
(0.040068659 4.9944647e-06 0)
(0.040011053 2.2665716e-06 0)
(0.039985307 1.1732852e-06 0)
(0.039971972 4.4668937e-07 0)
(0.039967049 1.7414731e-07 0)
(0.03996518 1.4409288e-08 0)
(0.039965128 -2.9948558e-08 0)
(0.039965544 -4.8501279e-08 0)
(0.039966152 -4.3135066e-08 0)
(0.03996668 -3.5679212e-08 0)
(0.039967111 -2.6003836e-08 0)
(0.039967422 -1.8534785e-08 0)
(0.039967642 -1.2469311e-08 0)
(0.03996779 -8.2631313e-09 0)
(0.039967887 -5.2803444e-09 0)
(0.039967949 -3.325843e-09 0)
(0.039967988 -2.0395782e-09 0)
(0.039968012 -1.2337695e-09 0)
(0.039968026 -7.2960909e-10 0)
(0.039968035 -4.2403778e-10 0)
(0.03996804 -2.3985656e-10 0)
(0.039968042 -1.3243636e-10 0)
(0.039968044 -7.1203591e-11 0)
(0.039968045 -3.7381547e-11 0)
(0.039968045 -1.8758613e-11 0)
(0.039968045 -8.5515157e-12 0)
(0.039968046 -3.168649e-12 0)
(0.039968046 -8.5219442e-13 0)
(0.039968046 -1.6180452e-13 0)
(0.039968046 -3.9910468e-14 0)
(0.039968046 1.5608852e-13 0)
(0.039968046 3.4761235e-13 0)
(0.039968046 3.1524202e-13 0)
(0.039968046 2.8531142e-13 0)
(0.039968046 2.2093506e-13 0)
(0.039968046 2.2717488e-13 0)
(0.039968046 2.4977445e-13 0)
(0.039968046 1.5274185e-13 0)
(0.039968046 1.5665853e-13 0)
(0.039968046 4.9633684e-14 0)
(0.039968046 4.8830853e-15 0)
(0.039968046 -1.5254812e-13 0)
(0.039968046 -2.9933318e-13 0)
(0.039968046 -3.5086302e-13 0)
(0.039968046 -3.0921135e-13 0)
(0.039968046 -2.6284968e-13 0)
(0.039968046 -1.9726053e-13 0)
(0.039968046 -1.7914967e-13 0)
(0.039968046 -1.4615736e-13 0)
(0.039968046 -1.3812738e-13 0)
(0.039968046 -1.4645034e-13 0)
(0.039968046 -1.8806479e-13 0)
(0.039968046 -2.7513951e-13 0)
(0.039968046 -3.5715194e-13 0)
(0.039968046 -4.0519124e-13 0)
(0.039968046 -4.1967255e-13 0)
(0.039968046 -3.9576498e-13 0)
(0.039968046 -3.6164117e-13 0)
(0.039968046 -2.7761462e-13 0)
(0.039968046 -2.8592892e-13 0)
(0.039968046 -1.8930219e-13 0)
(0.039968046 -2.7667275e-13 0)
(0.039968046 -2.4499131e-13 0)
(0.039968046 -3.420434e-13 0)
(0.039968046 -2.9594911e-13 0)
(0.039968046 -3.4992223e-13 0)
(0.039968046 -2.6147137e-13 0)
(0.039968046 -3.2380338e-13 0)
(0.039968046 -2.4416203e-13 0)
(0.039968046 -3.2621216e-13 0)
(0.039968046 -2.4370649e-13 0)
(0.039968046 -3.1132194e-13 0)
(0.039968046 -2.180956e-13 0)
(0.039968046 -2.7811934e-13 0)
(0.039968046 -1.9023354e-13 0)
(0.039968046 -2.475953e-13 0)
(0.039968046 -1.7408236e-13 0)
(0.039968046 -2.3081811e-13 0)
(0.039968046 -1.7556429e-13 0)
(0.039968046 -2.3009686e-13 0)
(0.039968046 -1.7944269e-13 0)
(0.039968046 -2.2449449e-13 0)
(0.039968046 -1.8901192e-13 0)
(0.039968046 -2.4990896e-13 0)
(0.039968046 -2.171967e-13 0)
(0.039968046 -2.6025041e-13 0)
(0.039968046 -2.0589722e-13 0)
(0.039968046 -2.5579046e-13 0)
(0.039968046 -1.8915903e-13 0)
(0.039968046 -2.4441985e-13 0)
(0.039968046 -2.0133748e-13 0)
(0.039968046 -2.9443606e-13 0)
(0.039968046 -2.4525918e-13 0)
(0.039968046 -2.3806889e-13 0)
(0.039968046 -5.1301486e-14 0)
(0.039968046 7.4639606e-14 0)
(0.039968046 2.1945465e-13 0)
(0.039968046 2.7012745e-13 0)
(0.039968046 3.7474474e-13 0)
(0.039968046 3.9592509e-13 0)
(0.039968046 3.9781012e-13 0)
(0.039968046 2.5897247e-13 0)
(0.039968046 1.0460067e-13 0)
(0.039968046 -1.3998087e-13 0)
(0.039968046 -2.6877331e-13 0)
(0.039968046 -3.4397768e-13 0)
(0.039968046 -3.0451437e-13 0)
(0.039968046 -2.8278041e-13 0)
(0.039968046 -2.0978597e-13 0)
(0.039968046 -1.6306841e-13 0)
(0.039968046 -1.1288153e-13 0)
(0.039968046 -1.2358946e-13 0)
(0.039968046 -1.3476786e-13 0)
(0.039968046 -1.7873479e-13 0)
(0.039968046 -1.9883988e-13 0)
(0.039968046 -2.1600415e-13 0)
(0.039968046 -2.1621496e-13 0)
(0.039968046 -2.2124575e-13 0)
(0.039968046 -2.1801984e-13 0)
(0.039968046 -2.2380315e-13 0)
(0.039968046 -2.184826e-13 0)
(0.039968046 -2.2508053e-13 0)
(0.039968046 -2.1564247e-13 0)
(0.039968046 -2.2169553e-13 0)
(0.039968046 -2.0645668e-13 0)
(0.039968046 -2.1546816e-13 0)
(0.039968046 -1.9926307e-13 0)
(0.039968046 -2.0707057e-13 0)
(0.039968046 -1.9241919e-13 0)
(0.039968046 -1.9897056e-13 0)
(0.039968046 -1.9014313e-13 0)
(0.039968046 -1.959031e-13 0)
(0.039968046 -1.8602748e-13 0)
(0.039968046 -1.8124741e-13 0)
(0.039968046 -1.8211624e-13 0)
(0.039968046 -1.941243e-13 0)
(0.039968046 -1.9983988e-13 0)
(0.039968046 -1.7701237e-13 0)
(0.039968046 -1.3980093e-13 0)
(0.039968046 -1.4397534e-13 0)
(0.039968046 -2.0387622e-13 0)
(0.039968046 -2.6661209e-13 0)
(0.039968046 -2.926502e-13 0)
(0.039968046 -1.7940234e-13 0)
(0.039968046 -6.0847183e-15 0)
(0.039968046 1.9297549e-13 0)
(0.039968046 3.1056802e-13 0)
(0.039968046 3.1828279e-13 0)
(0.039968046 3.0153892e-13 0)
(0.039968046 2.7382489e-13 0)
(0.039968046 2.449938e-13 0)
(0.039968046 2.1422675e-13 0)
(0.039968046 2.0007671e-13 0)
(0.039968046 2.0696117e-13 0)
(0.039968046 2.0209336e-13 0)
(0.039968046 1.9407756e-13 0)
(0.039968046 1.8736294e-13 0)
(0.039968046 2.4448689e-13 0)
(0.039968046 2.9985023e-13 0)
(0.039968046 3.3588373e-13 0)
(0.039968046 2.5941548e-13 0)
(0.039968046 1.0224807e-13 0)
(0.039968046 -9.979357e-14 0)
(0.039968046 -2.4057978e-13 0)
(0.039968046 -3.202493e-13 0)
(0.039968046 -2.7539051e-13 0)
(0.039968046 -2.6942729e-13 0)
(0.039968046 -2.1416064e-13 0)
(0.039968046 -2.0387871e-13 0)
(0.039968046 -1.6441218e-13 0)
(0.039968046 -1.6266274e-13 0)
(0.039968046 -1.4849725e-13 0)
(0.039968046 -1.8453443e-13 0)
(0.039968046 -1.9115908e-13 0)
(0.039968046 -2.1050556e-13 0)
(0.039968046 -1.5890475e-13 0)
(0.039968046 -1.5923174e-13 0)
(0.039968046 -1.8935689e-13 0)
(0.039968046 -2.8189063e-13 0)
(0.039968046 -3.2243409e-13 0)
(0.039968046 -3.1611724e-13 0)
(0.039968046 -1.4171078e-13 0)
(0.039968046 4.59434e-14 0)
(0.039968046 2.1346479e-13 0)
(0.039968046 2.8113292e-13 0)
(0.039968046 2.2461058e-13 0)
(0.039968046 1.8269003e-13 0)
(0.039968046 1.466483e-13 0)
(0.039968046 1.7341496e-13 0)
(0.039968046 2.0728307e-13 0)
(0.039968046 2.3080579e-13 0)
(0.039968046 1.6449802e-13 0)
(0.039968046 2.3785632e-14 0)
(0.039968046 -1.8682392e-13 0)
(0.039968046 -3.5693888e-13 0)
(0.039968046 -4.3943262e-13 0)
(0.039968046 -3.5719531e-13 0)
(0.039968046 -2.3526026e-13 0)
(0.039968046 -3.7701453e-15 0)
(0.039968046 2.5388043e-13 0)
(0.039968046 4.415026e-13 0)
(0.039968046 4.6152362e-13 0)
(0.039968046 3.4409562e-13 0)
(0.039968046 1.2551662e-13 0)
(0.039968046 -1.2177787e-13 0)
(0.039968046 -2.8091056e-13 0)
(0.039968046 -3.0495481e-13 0)
(0.039968046 -2.7276732e-13 0)
(0.039968046 -2.6418804e-13 0)
(0.039968046 -2.8702283e-13 0)
(0.039968046 -2.9421712e-13 0)
(0.039968046 -2.2864428e-13 0)
(0.039968046 -6.0947298e-14 0)
(0.039968046 2.163603e-13 0)
(0.039968046 3.8354807e-13 0)
(0.039968046 3.4808248e-13 0)
(0.039968046 2.0949064e-13 0)
(0.039968046 1.3595482e-14 0)
(0.039968046 -1.9502244e-13 0)
(0.039968046 -3.515302e-13 0)
(0.039968046 -4.6046509e-13 0)
(0.039968046 -3.9301801e-13 0)
(0.039968046 -2.5070667e-13 0)
(0.039968046 4.2495851e-15 0)
(0.039968046 2.0045072e-13 0)
(0.039968046 2.7563096e-13 0)
(0.039968046 2.765096e-13 0)
(0.039968046 2.6269359e-13 0)
(0.039968046 3.0048922e-13 0)
(0.039968046 3.0478399e-13 0)
(0.039968046 2.5526027e-13 0)
(0.039968046 7.770351e-14 0)
(0.039968046 -1.8360456e-13 0)
(0.039968046 -3.8470347e-13 0)
(0.039968046 -4.1628903e-13 0)
(0.039968046 -2.709848e-13 0)
(0.039968046 -4.8473684e-14 0)
(0.039968046 1.9412481e-13 0)
(0.039968046 3.8626637e-13 0)
(0.039968046 3.8659161e-13 0)
(0.039968046 3.0339539e-13 0)
(0.039968046 4.9563567e-14 0)
(0.039968046 -2.3463051e-13 0)
(0.039968046 -4.1588943e-13 0)
(0.039968046 -3.556028e-13 0)
(0.039968046 -1.8410821e-13 0)
(0.039968046 1.0111456e-13 0)
(0.039968046 3.3506619e-13 0)
(0.039968046 4.0656779e-13 0)
(0.039968046 3.1036213e-13 0)
(0.039968046 9.2999575e-14 0)
(0.039968046 -1.9250268e-13 0)
(0.039968046 -3.7379799e-13 0)
(0.039968046 -3.7335316e-13 0)
(0.039968046 -2.5322126e-13 0)
(0.039968046 -5.9445423e-14 0)
(0.039968046 1.8494419e-13 0)
(0.039968046 3.8197848e-13 0)
(0.039968046 4.451854e-13 0)
(0.039968046 3.8651877e-13 0)
(0.039968046 2.1310884e-13 0)
(0.039968046 -4.6541904e-14 0)
(0.039968046 -3.0131609e-13 0)
(0.039968046 -4.430603e-13 0)
(0.039968046 -3.9939191e-13 0)
(0.039968046 -1.9241164e-13 0)
(0.039968046 9.4775835e-14 0)
(0.039968046 3.5982183e-13 0)
(0.039968046 3.856398e-13 0)
(0.039968046 1.5851397e-13 0)
(0.039968046 -1.4676788e-13 0)
(0.039968046 -3.3243954e-13 0)
(0.039968046 -2.6669107e-13 0)
(0.039968046 -8.9918379e-15 0)
(0.039968046 2.1939808e-13 0)
(0.039968046 2.5034994e-13 0)
(0.039968046 1.6409366e-13 0)
(0.039968046 -1.7557597e-14 0)
(0.039968046 -1.6297865e-13 0)
(0.039968046 -2.5198052e-13 0)
(0.039968046 -2.9942836e-13 0)
(0.039968046 -3.1302033e-13 0)
(0.039968046 -2.680808e-13 0)
(0.039968046 -1.6624264e-13 0)
(0.039968046 -1.5249407e-13 0)
(0.039968046 -2.8322554e-13 0)
(0.039968046 -3.4095812e-13 0)
(0.039968046 -7.7835655e-14 0)
(0.039968046 1.5034784e-13 0)
(0.36732384 0.1406283 0)
(0.29754389 0.025079387 0)
(0.1860793 0.0083694667 0)
(0.16132807 0.0041218781 0)
(0.13901859 0.0019375832 0)
(0.13040448 0.001177027 0)
(0.12396461 0.00061113178 0)
(0.12095998 0.00037192094 0)
(0.1189454 0.00019726547 0)
(0.11794826 0.00011563879 0)
(0.11733081 6.0256714e-05 0)
(0.11702581 3.3412773e-05 0)
(0.11685065 1.6510319e-05 0)
(0.11676842 8.3927894e-06 0)
(0.1167257 3.664177e-06 0)
(0.11670834 1.5218878e-06 0)
(0.1167012 4.0026168e-07 0)
(0.11669986 -2.755949e-08 0)
(0.1167004 -1.9872844e-07 0)
(0.11670175 -2.1570739e-07 0)
(0.11670304 -1.902158e-07 0)
(0.11670415 -1.4598854e-07 0)
(0.11670497 -1.0641604e-07 0)
(0.11670557 -7.3380677e-08 0)
(0.11670597 -4.9244439e-08 0)
(0.11670624 -3.1974897e-08 0)
(0.11670642 -2.03537e-08 0)
(0.11670653 -1.2650819e-08 0)
(0.11670659 -7.7325539e-09 0)
(0.11670664 -4.6303577e-09 0)
(0.11670666 -2.7234008e-09 0)
(0.11670667 -1.5666423e-09 0)
(0.11670668 -8.8278726e-10 0)
(0.11670669 -4.8602568e-10 0)
(0.11670669 -2.6114982e-10 0)
(0.11670669 -1.3529073e-10 0)
(0.11670669 -6.5980662e-11 0)
(0.11670669 -2.9250937e-11 0)
(0.11670669 -1.1438201e-11 0)
(0.11670669 -3.8501178e-12 0)
(0.11670669 -8.2544996e-13 0)
(0.11670669 7.0193136e-13 0)
(0.11670669 1.5181962e-12 0)
(0.11670669 1.436671e-12 0)
(0.11670669 1.0666052e-12 0)
(0.11670669 6.5966927e-13 0)
(0.11670669 6.2687374e-13 0)
(0.11670669 7.2639772e-13 0)
(0.11670669 8.6115546e-13 0)
(0.11670669 8.4442404e-13 0)
(0.11670669 6.4617111e-13 0)
(0.11670669 4.3893954e-13 0)
(0.11670669 1.4357133e-13 0)
(0.11670669 -3.6600291e-13 0)
(0.11670669 -6.1653741e-13 0)
(0.11670669 -7.0358923e-13 0)
(0.11670669 -6.7517448e-13 0)
(0.11670669 -7.419001e-13 0)
(0.11670669 -6.1342892e-13 0)
(0.11670669 -7.0163537e-13 0)
(0.11670669 -5.6365046e-13 0)
(0.11670669 -6.7258236e-13 0)
(0.11670669 -6.5697799e-13 0)
(0.11670669 -9.3580744e-13 0)
(0.11670669 -1.0092687e-12 0)
(0.11670669 -1.1453764e-12 0)
(0.11670669 -1.1388879e-12 0)
(0.11670669 -1.1569667e-12 0)
(0.11670669 -1.1111681e-12 0)
(0.11670669 -9.9240701e-13 0)
(0.11670669 -9.5025213e-13 0)
(0.11670669 -8.1731587e-13 0)
(0.11670669 -9.597613e-13 0)
(0.11670669 -9.5466678e-13 0)
(0.11670669 -1.1255938e-12 0)
(0.11670669 -1.0553803e-12 0)
(0.11670669 -1.1317016e-12 0)
(0.11670669 -9.6228251e-13 0)
(0.11670669 -1.0729583e-12 0)
(0.11670669 -9.2662919e-13 0)
(0.11670669 -1.0827307e-12 0)
(0.11670669 -9.1303444e-13 0)
(0.11670669 -1.0332281e-12 0)
(0.11670669 -8.2889245e-13 0)
(0.11670669 -9.3652956e-13 0)
(0.11670669 -7.4421605e-13 0)
(0.11670669 -8.5688949e-13 0)
(0.11670669 -6.9491061e-13 0)
(0.11670669 -8.1492046e-13 0)
(0.11670669 -6.9435218e-13 0)
(0.11670669 -8.2012049e-13 0)
(0.11670669 -7.1432682e-13 0)
(0.11670669 -8.2222412e-13 0)
(0.11670669 -7.4588943e-13 0)
(0.11670669 -8.9599247e-13 0)
(0.11670669 -8.3270228e-13 0)
(0.11670669 -9.3876894e-13 0)
(0.11670669 -8.1565482e-13 0)
(0.11670669 -9.2333374e-13 0)
(0.11670669 -7.6872507e-13 0)
(0.11670669 -8.6964806e-13 0)
(0.11670669 -7.5698272e-13 0)
(0.11670669 -9.8835536e-13 0)
(0.11670669 -8.8653558e-13 0)
(0.11670669 -8.5589642e-13 0)
(0.11670669 -4.110998e-13 0)
(0.11670669 -9.7567247e-14 0)
(0.11670669 2.9630947e-13 0)
(0.11670669 4.7872062e-13 0)
(0.11670669 8.6344256e-13 0)
(0.11670669 1.1530561e-12 0)
(0.11670669 1.3230837e-12 0)
(0.11670669 1.0555904e-12 0)
(0.11670669 6.5722105e-13 0)
(0.11670669 8.9622863e-15 0)
(0.11670669 -4.5305902e-13 0)
(0.11670669 -8.841821e-13 0)
(0.11670669 -9.3421399e-13 0)
(0.11670669 -9.5723295e-13 0)
(0.11670669 -7.8883773e-13 0)
(0.11670669 -6.8342376e-13 0)
(0.11670669 -5.7904951e-13 0)
(0.11670669 -6.2318164e-13 0)
(0.11670669 -6.6139547e-13 0)
(0.11670669 -7.7288921e-13 0)
(0.11670669 -8.1496316e-13 0)
(0.11670669 -8.5276897e-13 0)
(0.11670669 -8.4450505e-13 0)
(0.11670669 -8.5571452e-13 0)
(0.11670669 -8.4191737e-13 0)
(0.11670669 -8.5516059e-13 0)
(0.11670669 -8.3579871e-13 0)
(0.11670669 -8.4947244e-13 0)
(0.11670669 -8.2068034e-13 0)
(0.11670669 -8.3295648e-13 0)
(0.11670669 -7.9657997e-13 0)
(0.11670669 -8.1461839e-13 0)
(0.11670669 -7.7781048e-13 0)
(0.11670669 -7.9353113e-13 0)
(0.11670669 -7.5854689e-13 0)
(0.11670669 -7.7198201e-13 0)
(0.11670669 -7.509112e-13 0)
(0.11670669 -7.6428478e-13 0)
(0.11670669 -7.3977109e-13 0)
(0.11670669 -7.3129805e-13 0)
(0.11670669 -7.2624617e-13 0)
(0.11670669 -7.5696521e-13 0)
(0.11670669 -7.7358119e-13 0)
(0.11670669 -7.3352549e-13 0)
(0.11670669 -6.4433686e-13 0)
(0.11670669 -6.3367859e-13 0)
(0.11670669 -7.753117e-13 0)
(0.11670669 -9.759068e-13 0)
(0.11670669 -1.0599584e-12 0)
(0.11670669 -8.3385691e-13 0)
(0.11670669 -3.8304679e-13 0)
(0.11670669 1.5992063e-13 0)
(0.11670669 6.0371164e-13 0)
(0.11670669 8.589611e-13 0)
(0.11670669 9.4019175e-13 0)
(0.11670669 9.2857458e-13 0)
(0.11670669 8.6587467e-13 0)
(0.11670669 7.9748824e-13 0)
(0.11670669 7.6420725e-13 0)
(0.11670669 7.9440915e-13 0)
(0.11670669 7.9465937e-13 0)
(0.11670669 7.7287676e-13 0)
(0.11670669 7.4486423e-13 0)
(0.11670669 8.6844045e-13 0)
(0.11670669 1.0302154e-12 0)
(0.11670669 1.1738545e-12 0)
(0.11670669 1.006542e-12 0)
(0.11670669 6.3463158e-13 0)
(0.11670669 1.0073246e-13 0)
(0.11670669 -3.7421596e-13 0)
(0.11670669 -7.5349946e-13 0)
(0.11670669 -8.4331037e-13 0)
(0.11670669 -8.9539013e-13 0)
(0.11670669 -7.9437756e-13 0)
(0.11670669 -7.6302448e-13 0)
(0.11670669 -6.7164498e-13 0)
(0.11670669 -6.7987199e-13 0)
(0.11670669 -6.4661839e-13 0)
(0.11670669 -7.3225235e-13 0)
(0.11670669 -7.5008395e-13 0)
(0.11670669 -8.0328517e-13 0)
(0.11670669 -6.8614466e-13 0)
(0.11670669 -6.7248204e-13 0)
(0.11670669 -7.1896515e-13 0)
(0.11670669 -9.601107e-13 0)
(0.11670669 -1.1243191e-12 0)
(0.11670669 -1.123549e-12 0)
(0.11670669 -7.3899792e-13 0)
(0.11670669 -2.2510667e-13 0)
(0.11670669 2.8047748e-13 0)
(0.11670669 6.4626667e-13 0)
(0.11670669 7.3499568e-13 0)
(0.11670669 7.0148845e-13 0)
(0.11670669 6.1767325e-13 0)
(0.11670669 6.872221e-13 0)
(0.11670669 8.08485e-13 0)
(0.11670669 8.9284565e-13 0)
(0.11670669 7.8917842e-13 0)
(0.11670669 4.2635395e-13 0)
(0.11670669 -1.0623583e-13 0)
(0.11670669 -6.6352884e-13 0)
(0.11670669 -1.1278973e-12 0)
(0.11670669 -1.140879e-12 0)
(0.11670669 -9.0257829e-13 0)
(0.11670669 -3.5107198e-13 0)
(0.11670669 3.0772453e-13 0)
(0.11670669 9.6918441e-13 0)
(0.11670669 1.2975366e-12 0)
(0.11670669 1.1714244e-12 0)
(0.11670669 6.514915e-13 0)
(0.11670669 9.0631023e-15 0)
(0.11670669 -5.5043686e-13 0)
(0.11670669 -8.0703378e-13 0)
(0.11670669 -8.4801367e-13 0)
(0.11670669 -8.663132e-13 0)
(0.11670669 -9.569133e-13 0)
(0.11670669 -1.0392926e-12 0)
(0.11670669 -9.2203584e-13 0)
(0.11670669 -5.4562241e-13 0)
(0.11670669 1.5802971e-13 0)
(0.11670669 7.4302069e-13 0)
(0.11670669 1.0068101e-12 0)
(0.11670669 7.8600187e-13 0)
(0.11670669 3.2654166e-13 0)
(0.11670669 -2.229127e-13 0)
(0.11670669 -8.0008439e-13 0)
(0.11670669 -1.2576193e-12 0)
(0.11670669 -1.3035572e-12 0)
(0.11670669 -9.7170101e-13 0)
(0.11670669 -3.1977222e-13 0)
(0.11670669 1.8360417e-13 0)
(0.11670669 5.9800415e-13 0)
(0.11670669 7.4541959e-13 0)
(0.11670669 8.1966719e-13 0)
(0.11670669 9.5457858e-13 0)
(0.11670669 1.0596251e-12 0)
(0.11670669 9.597508e-13 0)
(0.11670669 5.8467429e-13 0)
(0.11670669 -9.2224893e-14 0)
(0.11670669 -7.457169e-13 0)
(0.11670669 -1.0954174e-12 0)
(0.11670669 -9.5896512e-13 0)
(0.11670669 -4.3782243e-13 0)
(0.11670669 1.8247834e-13 0)
(0.11670669 8.5255224e-13 0)
(0.11670669 1.1588658e-12 0)
(0.11670669 1.0720816e-12 0)
(0.11670669 4.7411393e-13 0)
(0.11670669 -2.5014962e-13 0)
(0.11670669 -9.5417518e-13 0)
(0.11670669 -1.0880072e-12 0)
(0.11670669 -7.7068692e-13 0)
(0.11670669 -4.09549e-14 0)
(0.11670669 6.3257317e-13 0)
(0.11670669 1.0914038e-12 0)
(0.11670669 1.0670342e-12 0)
(0.11670669 5.6899848e-13 0)
(0.11670669 -1.6275098e-13 0)
(0.11670669 -8.3204432e-13 0)
(0.11670669 -1.1195329e-12 0)
(0.11670669 -9.3714598e-13 0)
(0.11670669 -4.708968e-13 0)
(0.11670669 1.7158732e-13 0)
(0.11670669 8.2604113e-13 0)
(0.11670669 1.2187325e-12 0)
(0.11670669 1.2640775e-12 0)
(0.11670669 8.6456494e-13 0)
(0.11670669 1.9584763e-13 0)
(0.11670669 -4.556663e-13 0)
(0.11670669 -1.0812816e-12 0)
(0.11670669 -1.2286728e-12 0)
(0.11670669 -8.3565297e-13 0)
(0.11670669 -1.1187677e-13 0)
(0.11670669 6.9405905e-13 0)
(0.11670669 1.0502013e-12 0)
(0.11670669 6.9965911e-13 0)
(0.11670669 -4.9841821e-14 0)
(0.11670669 -7.5523851e-13 0)
(0.11670669 -8.712525e-13 0)
(0.11670669 -3.2489584e-13 0)
(0.11670669 2.8696026e-13 0)
(0.11670669 6.9754214e-13 0)
(0.11670669 6.4665989e-13 0)
(0.11670669 2.3258085e-13 0)
(0.11670669 -1.9738861e-13 0)
(0.11670669 -6.2724445e-13 0)
(0.11670669 -8.9158291e-13 0)
(0.11670669 -1.0272511e-12 0)
(0.11670669 -9.4952931e-13 0)
(0.11670669 -6.7580147e-13 0)
(0.11670669 -5.9665698e-13 0)
(0.11670669 -9.4680405e-13 0)
(0.11670669 -1.190411e-12 0)
(0.11670669 -6.2086653e-13 0)
(0.11670669 7.5397613e-14 0)
(0.50390834 0.19019022 0)
(0.4384704 0.050431508 0)
(0.29767008 0.022055317 0)
(0.25944374 0.010780101 0)
(0.22598939 0.0055621419 0)
(0.21213187 0.003230803 0)
(0.20205719 0.0017732945 0)
(0.19716897 0.001045741 0)
(0.19394744 0.0005767941 0)
(0.19230772 0.00033133027 0)
(0.19130242 0.00017832416 0)
(0.19079327 9.7721942e-05 0)
(0.19050201 4.9920097e-05 0)
(0.1903612 2.5325474e-05 0)
(0.19028762 1.1620219e-05 0)
(0.19025609 4.9694713e-06 0)
(0.1902425 1.5969629e-06 0)
(0.19023894 1.7388149e-07 0)
(0.19023899 -3.9954704e-07 0)
(0.19024063 -5.2230916e-07 0)
(0.19024241 -4.8481302e-07 0)
(0.19024402 -3.8477101e-07 0)
(0.19024524 -2.8485209e-07 0)
(0.19024615 -1.99318e-07 0)
(0.19024677 -1.3489037e-07 0)
(0.19024719 -8.840661e-08 0)
(0.19024746 -5.6651899e-08 0)
(0.19024763 -3.5478887e-08 0)
(0.19024774 -2.1816291e-08 0)
(0.1902478 -1.3154694e-08 0)
(0.19024784 -7.7906308e-09 0)
(0.19024787 -4.5216773e-09 0)
(0.19024788 -2.5722818e-09 0)
(0.19024789 -1.4309572e-09 0)
(0.19024789 -7.7669886e-10 0)
(0.19024789 -4.0808337e-10 0)
(0.1902479 -2.0464629e-10 0)
(0.1902479 -9.57801e-11 0)
(0.1902479 -4.0668503e-11 0)
(0.1902479 -1.4758544e-11 0)
(0.1902479 -3.3605938e-12 0)
(0.1902479 1.6763857e-12 0)
(0.1902479 3.673216e-12 0)
(0.1902479 3.8109187e-12 0)
(0.1902479 3.0408742e-12 0)
(0.1902479 2.1641603e-12 0)
(0.1902479 1.7212643e-12 0)
(0.1902479 1.5123449e-12 0)
(0.1902479 1.4255696e-12 0)
(0.1902479 1.2875607e-12 0)
(0.1902479 1.0082852e-12 0)
(0.1902479 6.8998981e-13 0)
(0.1902479 3.3342942e-13 0)
(0.1902479 -2.7950595e-13 0)
(0.1902479 -5.6754727e-13 0)
(0.1902479 -7.3637158e-13 0)
(0.1902479 -7.2782408e-13 0)
(0.1902479 -8.6993642e-13 0)
(0.1902479 -7.3605421e-13 0)
(0.1902479 -8.5117501e-13 0)
(0.1902479 -6.9424223e-13 0)
(0.1902479 -8.4938184e-13 0)
(0.1902479 -8.2258408e-13 0)
(0.1902479 -1.1530487e-12 0)
(0.1902479 -1.2252507e-12 0)
(0.1902479 -1.418089e-12 0)
(0.1902479 -1.4072531e-12 0)
(0.1902479 -1.4727716e-12 0)
(0.1902479 -1.4024062e-12 0)
(0.1902479 -1.2752744e-12 0)
(0.1902479 -1.2035785e-12 0)
(0.1902479 -1.0574277e-12 0)
(0.1902479 -1.2092123e-12 0)
(0.1902479 -1.2059239e-12 0)
(0.1902479 -1.3981451e-12 0)
(0.1902479 -1.3156552e-12 0)
(0.1902479 -1.411727e-12 0)
(0.1902479 -1.2073174e-12 0)
(0.1902479 -1.3412262e-12 0)
(0.1902479 -1.1523056e-12 0)
(0.1902479 -1.3389394e-12 0)
(0.1902479 -1.1148503e-12 0)
(0.1902479 -1.2609114e-12 0)
(0.1902479 -9.904562e-13 0)
(0.1902479 -1.1233326e-12 0)
(0.1902479 -8.6593779e-13 0)
(0.1902479 -1.0059679e-12 0)
(0.1902479 -7.8963619e-13 0)
(0.1902479 -9.4427716e-13 0)
(0.1902479 -7.888219e-13 0)
(0.1902479 -9.5767651e-13 0)
(0.1902479 -8.3213314e-13 0)
(0.1902479 -9.8759857e-13 0)
(0.1902479 -8.9997282e-13 0)
(0.1902479 -1.1082841e-12 0)
(0.1902479 -1.0359092e-12 0)
(0.1902479 -1.1940467e-12 0)
(0.1902479 -1.0423058e-12 0)
(0.1902479 -1.193208e-12 0)
(0.1902479 -9.7842547e-13 0)
(0.1902479 -1.0981969e-12 0)
(0.1902479 -9.1312932e-13 0)
(0.1902479 -1.1814984e-12 0)
(0.1902479 -1.0265457e-12 0)
(0.1902479 -9.5439085e-13 0)
(0.1902479 -3.9696482e-13 0)
(0.1902479 -4.8886881e-14 0)
(0.1902479 4.2035011e-13 0)
(0.1902479 6.1670459e-13 0)
(0.1902479 1.0839819e-12 0)
(0.1902479 1.4441659e-12 0)
(0.1902479 1.6783442e-12 0)
(0.1902479 1.356066e-12 0)
(0.1902479 8.7457811e-13 0)
(0.1902479 7.8041211e-14 0)
(0.1902479 -4.71098e-13 0)
(0.1902479 -1.0182396e-12 0)
(0.1902479 -1.1267902e-12 0)
(0.1902479 -1.1834819e-12 0)
(0.1902479 -9.8724436e-13 0)
(0.1902479 -8.8126238e-13 0)
(0.1902479 -7.5657719e-13 0)
(0.1902479 -8.1378449e-13 0)
(0.1902479 -8.5646179e-13 0)
(0.1902479 -9.8042615e-13 0)
(0.1902479 -1.0233675e-12 0)
(0.1902479 -1.0650339e-12 0)
(0.1902479 -1.0533409e-12 0)
(0.1902479 -1.0635122e-12 0)
(0.1902479 -1.0438914e-12 0)
(0.1902479 -1.0555759e-12 0)
(0.1902479 -1.0258263e-12 0)
(0.1902479 -1.0375893e-12 0)
(0.1902479 -9.9381823e-13 0)
(0.1902479 -1.0047312e-12 0)
(0.1902479 -9.5688183e-13 0)
(0.1902479 -9.7384783e-13 0)
(0.1902479 -9.2706721e-13 0)
(0.1902479 -9.4190421e-13 0)
(0.1902479 -8.976934e-13 0)
(0.1902479 -9.1182911e-13 0)
(0.1902479 -8.8590406e-13 0)
(0.1902479 -9.002018e-13 0)
(0.1902479 -8.713664e-13 0)
(0.1902479 -8.6508709e-13 0)
(0.1902479 -8.5734567e-13 0)
(0.1902479 -8.9242674e-13 0)
(0.1902479 -9.1149741e-13 0)
(0.1902479 -8.7374791e-13 0)
(0.1902479 -7.8247852e-13 0)
(0.1902479 -7.7207373e-13 0)
(0.1902479 -9.4843566e-13 0)
(0.1902479 -1.1856771e-12 0)
(0.1902479 -1.2816688e-12 0)
(0.1902479 -9.9671124e-13 0)
(0.1902479 -4.7445665e-13 0)
(0.1902479 1.5579786e-13 0)
(0.1902479 6.8283176e-13 0)
(0.1902479 1.0078006e-12 0)
(0.1902479 1.1425381e-12 0)
(0.1902479 1.1344585e-12 0)
(0.1902479 1.0574704e-12 0)
(0.1902479 9.7136516e-13 0)
(0.1902479 9.2965595e-13 0)
(0.1902479 9.6003227e-13 0)
(0.1902479 9.613963e-13 0)
(0.1902479 9.434282e-13 0)
(0.1902479 9.0960118e-13 0)
(0.1902479 1.0659778e-12 0)
(0.1902479 1.2675985e-12 0)
(0.1902479 1.4326331e-12 0)
(0.1902479 1.2402121e-12 0)
(0.1902479 7.9650779e-13 0)
(0.1902479 1.6882199e-13 0)
(0.1902479 -3.7723612e-13 0)
(0.1902479 -8.4862097e-13 0)
(0.1902479 -9.8705617e-13 0)
(0.1902479 -1.0736943e-12 0)
(0.1902479 -9.5155109e-13 0)
(0.1902479 -9.1543371e-13 0)
(0.1902479 -8.0238303e-13 0)
(0.1902479 -8.2377816e-13 0)
(0.1902479 -7.7919415e-13 0)
(0.1902479 -8.8101415e-13 0)
(0.1902479 -8.9185564e-13 0)
(0.1902479 -9.6372051e-13 0)
(0.1902479 -8.3001963e-13 0)
(0.1902479 -8.2515725e-13 0)
(0.1902479 -8.6970079e-13 0)
(0.1902479 -1.1786639e-12 0)
(0.1902479 -1.362931e-12 0)
(0.1902479 -1.3575963e-12 0)
(0.1902479 -9.0321223e-13 0)
(0.1902479 -3.210856e-13 0)
(0.1902479 2.7202459e-13 0)
(0.1902479 7.1056311e-13 0)
(0.1902479 8.5440744e-13 0)
(0.1902479 8.3055849e-13 0)
(0.1902479 7.4382308e-13 0)
(0.1902479 8.3485959e-13 0)
(0.1902479 9.8126534e-13 0)
(0.1902479 1.0784671e-12 0)
(0.1902479 9.337912e-13 0)
(0.1902479 5.2618455e-13 0)
(0.1902479 -1.0021235e-13 0)
(0.1902479 -7.4838182e-13 0)
(0.1902479 -1.317758e-12 0)
(0.1902479 -1.3792202e-12 0)
(0.1902479 -1.0943504e-12 0)
(0.1902479 -4.4356979e-13 0)
(0.1902479 3.2758198e-13 0)
(0.1902479 1.1152684e-12 0)
(0.1902479 1.5582852e-12 0)
(0.1902479 1.4242348e-12 0)
(0.1902479 8.1635785e-13 0)
(0.1902479 6.5163494e-14 0)
(0.1902479 -5.8876748e-13 0)
(0.1902479 -9.1638464e-13 0)
(0.1902479 -1.0043465e-12 0)
(0.1902479 -1.0431324e-12 0)
(0.1902479 -1.1623816e-12 0)
(0.1902479 -1.2668802e-12 0)
(0.1902479 -1.0912759e-12 0)
(0.1902479 -6.4458862e-13 0)
(0.1902479 1.7270278e-13 0)
(0.1902479 8.5217533e-13 0)
(0.1902479 1.2011945e-12 0)
(0.1902479 9.5093615e-13 0)
(0.1902479 4.1848481e-13 0)
(0.1902479 -2.3055876e-13 0)
(0.1902479 -9.0682494e-13 0)
(0.1902479 -1.502616e-12 0)
(0.1902479 -1.5738455e-12 0)
(0.1902479 -1.2063419e-12 0)
(0.1902479 -4.3486322e-13 0)
(0.1902479 1.5878685e-13 0)
(0.1902479 6.4170862e-13 0)
(0.1902479 8.5214682e-13 0)
(0.1902479 9.7712116e-13 0)
(0.1902479 1.1582307e-12 0)
(0.1902479 1.2858269e-12 0)
(0.1902479 1.1544845e-12 0)
(0.1902479 6.853978e-13 0)
(0.1902479 -9.8215912e-14 0)
(0.1902479 -8.5683584e-13 0)
(0.1902479 -1.3078021e-12 0)
(0.1902479 -1.1622418e-12 0)
(0.1902479 -5.7017409e-13 0)
(0.1902479 1.5628096e-13 0)
(0.1902479 9.6104302e-13 0)
(0.1902479 1.372949e-12 0)
(0.1902479 1.2899484e-12 0)
(0.1902479 5.8230726e-13 0)
(0.1902479 -2.5569128e-13 0)
(0.1902479 -1.0837639e-12 0)
(0.1902479 -1.2980576e-12 0)
(0.1902479 -9.2900688e-13 0)
(0.1902479 -7.5357364e-14 0)
(0.1902479 7.1285323e-13 0)
(0.1902479 1.2900663e-12 0)
(0.1902479 1.292631e-12 0)
(0.1902479 7.1151584e-13 0)
(0.1902479 -1.4346022e-13 0)
(0.1902479 -9.3600315e-13 0)
(0.1902479 -1.3328953e-12 0)
(0.1902479 -1.1246964e-12 0)
(0.1902479 -5.7738064e-13 0)
(0.1902479 1.7034878e-13 0)
(0.1902479 9.4187105e-13 0)
(0.1902479 1.4485928e-12 0)
(0.1902479 1.5383918e-12 0)
(0.1902479 1.0704011e-12 0)
(0.1902479 2.8555855e-13 0)
(0.1902479 -5.025303e-13 0)
(0.1902479 -1.2485363e-12 0)
(0.1902479 -1.4894433e-12 0)
(0.1902479 -1.0133097e-12 0)
(0.1902479 -1.6761811e-13 0)
(0.1902479 7.6927405e-13 0)
(0.1902479 1.2262986e-12 0)
(0.1902479 8.1190284e-13 0)
(0.1902479 -5.340097e-14 0)
(0.1902479 -8.6052573e-13 0)
(0.1902479 -1.0416474e-12 0)
(0.1902479 -3.9462126e-13 0)
(0.1902479 3.1708163e-13 0)
(0.1902479 8.0720717e-13 0)
(0.1902479 7.7236984e-13 0)
(0.1902479 2.9247346e-13 0)
(0.1902479 -2.0132309e-13 0)
(0.1902479 -7.0763343e-13 0)
(0.1902479 -1.0557177e-12 0)
(0.1902479 -1.2315577e-12 0)
(0.1902479 -1.1426845e-12 0)
(0.1902479 -8.1858778e-13 0)
(0.1902479 -7.3279739e-13 0)
(0.1902479 -1.1683254e-12 0)
(0.1902479 -1.4367046e-12 0)
(0.1902479 -7.3702271e-13 0)
(0.1902479 7.4696907e-14 0)
(0.59346672 0.2146733 0)
(0.54593347 0.075998407 0)
(0.39702192 0.039312292 0)
(0.34953973 0.01972055 0)
(0.30792187 0.010726731 0)
(0.28963523 0.0061583784 0)
(0.27651264 0.0034761896 0)
(0.26994405 0.0020291096 0)
(0.26565503 0.001140992 0)
(0.26342423 0.00065140457 0)
(0.26206335 0.00035632819 0)
(0.26136077 0.00019486791 0)
(0.26095907 0.00010128996 0)
(0.26076048 5.15894e-05 0)
(0.260656 2.4315994e-05 0)
(0.26060945 1.0644801e-05 0)
(0.26058866 3.7616612e-06 0)
(0.26058217 7.1256547e-07 0)
(0.26058122 -5.4192122e-07 0)
(0.26058278 -8.8367787e-07 0)
(0.2605848 -8.6414694e-07 0)
(0.26058673 -7.0526683e-07 0)
(0.26058825 -5.2960135e-07 0)
(0.26058939 -3.7486322e-07 0)
(0.26059018 -2.5558313e-07 0)
(0.26059072 -1.6870227e-07 0)
(0.26059108 -1.086924e-07 0)
(0.2605913 -6.8443607e-08 0)
(0.26059144 -4.2281065e-08 0)
(0.26059153 -2.5620808e-08 0)
(0.26059159 -1.5247787e-08 0)
(0.26059162 -8.8998874e-09 0)
(0.26059163 -5.0924137e-09 0)
(0.26059165 -2.8506408e-09 0)
(0.26059165 -1.5576858e-09 0)
(0.26059165 -8.2586999e-10 0)
(0.26059166 -4.2017348e-10 0)
(0.26059166 -2.0129601e-10 0)
(0.26059166 -8.8484121e-11 0)
(0.26059166 -3.3729997e-11 0)
(0.26059166 -8.8349436e-12 0)
(0.26059166 2.1615003e-12 0)
(0.26059166 6.4615786e-12 0)
(0.26059166 7.3230215e-12 0)
(0.26059166 6.4796413e-12 0)
(0.26059166 5.1385276e-12 0)
(0.26059166 3.9248171e-12 0)
(0.26059166 2.6748658e-12 0)
(0.26059166 1.5648288e-12 0)
(0.26059166 8.4434365e-13 0)
(0.26059166 4.8446067e-13 0)
(0.26059166 7.4258637e-14 0)
(0.26059166 -2.3272753e-13 0)
(0.26059166 -6.6823356e-13 0)
(0.26059166 -6.7738688e-13 0)
(0.26059166 -6.8117553e-13 0)
(0.26059166 -5.615562e-13 0)
(0.26059166 -6.5422919e-13 0)
(0.26059166 -4.1336294e-13 0)
(0.26059166 -5.0907158e-13 0)
(0.26059166 -3.2322436e-13 0)
(0.26059166 -5.7454955e-13 0)
(0.26059166 -5.6115814e-13 0)
(0.26059166 -9.5895776e-13 0)
(0.26059166 -1.0757285e-12 0)
(0.26059166 -1.3522912e-12 0)
(0.26059166 -1.3279606e-12 0)
(0.26059166 -1.358298e-12 0)
(0.26059166 -1.1957382e-12 0)
(0.26059166 -1.0287253e-12 0)
(0.26059166 -8.9405238e-13 0)
(0.26059166 -7.2947067e-13 0)
(0.26059166 -8.5497847e-13 0)
(0.26059166 -8.6112279e-13 0)
(0.26059166 -1.0782938e-12 0)
(0.26059166 -1.0089879e-12 0)
(0.26059166 -1.1336757e-12 0)
(0.26059166 -8.9540642e-13 0)
(0.26059166 -1.0340397e-12 0)
(0.26059166 -7.967842e-13 0)
(0.26059166 -1.0082833e-12 0)
(0.26059166 -7.3964985e-13 0)
(0.26059166 -9.2023421e-13 0)
(0.26059166 -5.9265542e-13 0)
(0.26059166 -7.5089794e-13 0)
(0.26059166 -4.2738546e-13 0)