/*--------------------------------*- C++ -*----------------------------------*\
| =========                 |                                                 |
| \\      /  F ield         | OpenFOAM: The Open Source CFD Toolbox           |
|  \\    /   O peration     | Version:  2206                                  |
|   \\  /    A nd           | Website:  www.openfoam.com                      |
|    \\/     M anipulation  |                                                 |
\*---------------------------------------------------------------------------*/
FoamFile
{
    version     2.0;
    format      ascii;
    arch        "LSB;label=32;scalar=64";
    class       surfaceScalarField;
    location    "16";
    object      phi;
}
// * * * * * * * * * * * * * * * * * * * * * * * * * * * * * * * * * * * * * //

dimensions      [0 3 -1 0 0 0 0];

oriented        oriented;

internalField   nonuniform List<scalar> 
29650
(
6.0867648e-05
0.00020579915
3.2718169e-05
2.814947e-05
2.4599021e-05
8.1191372e-06
2.0417849e-05
4.1811609e-06
1.8552178e-05
1.8656592e-06
1.73737e-05
1.1784662e-06
1.6781661e-05
5.9202903e-07
1.6412315e-05
3.6934023e-07
1.622082e-05
1.9149225e-07
1.6106686e-05
1.141367e-07
1.6048258e-05
5.8431721e-08
1.6015474e-05
3.2788163e-08
1.5999542e-05
1.5935623e-08
1.5991376e-05
8.1677166e-09
1.5987889e-05
3.4879671e-09
1.598644e-05
1.4487537e-09
1.5986091e-05
3.494856e-10
1.5986138e-05
-4.8255955e-11
1.5986349e-05
-2.1146665e-10
1.5986569e-05
-2.2020347e-10
1.5986762e-05
-1.9251513e-10
1.5986908e-05
-1.462891e-10
1.5987014e-05
-1.0626261e-10
1.5987087e-05
-7.2864144e-11
1.5987136e-05
-4.8769516e-11
1.5987167e-05
-3.1561371e-11
1.5987187e-05
-2.006874e-11
1.59872e-05
-1.2454212e-11
1.5987208e-05
-7.6068452e-12
1.5987212e-05
-4.5484041e-12
1.5987215e-05
-2.6762408e-12
1.5987216e-05
-1.5421966e-12
1.5987217e-05
-8.7279606e-13
1.5987218e-05
-4.8158787e-13
1.5987218e-05
-2.5819375e-13
1.5987218e-05
-1.3300145e-13
1.5987218e-05
-6.4535722e-14
1.5987218e-05
-2.9710836e-14
1.5987218e-05
-1.1199208e-14
1.5987218e-05
-3.001767e-15
1.5987218e-05
1.6853091e-15
1.5987218e-05
2.5416029e-15
1.5987218e-05
3.6417451e-15
1.5987218e-05
1.9647844e-15
1.5987218e-05
1.2808612e-15
1.5987218e-05
-2.7712254e-16
1.5987218e-05
-2.9656875e-16
1.5987218e-05
-3.4423861e-16
1.5987218e-05
9.8639475e-16
1.5987218e-05
1.1032099e-15
1.5987218e-05
1.7495568e-15
1.5987218e-05
1.2439841e-15
1.5987218e-05
1.0850032e-15
1.5987218e-05
2.6138892e-17
1.5987218e-05
-5.9357206e-16
1.5987218e-05
-1.5649128e-15
1.5987218e-05
-1.9902774e-15
1.5987218e-05
-2.3072198e-15
1.5987218e-05
-1.9657503e-15
1.5987218e-05
-1.7574559e-15
1.5987218e-05
-1.5225561e-15
1.5987218e-05
-1.4632939e-15
1.5987218e-05
-1.4525972e-15
1.5987218e-05
-1.5337005e-15
1.5987218e-05
-1.4861267e-15
1.5987218e-05
-1.5887678e-15
1.5987218e-05
-1.5060076e-15
1.5987218e-05
-1.4571262e-15
1.5987218e-05
-1.3307849e-15
1.5987218e-05
-1.2955639e-15
1.5987218e-05
-1.1730935e-15
1.5987218e-05
-1.3025131e-15
1.5987218e-05
-1.2904698e-15
1.5987218e-05
-1.3623607e-15
1.5987218e-05
-1.2783952e-15
1.5987218e-05
-1.3232681e-15
1.5987218e-05
-1.2372756e-15
1.5987218e-05
-1.3530715e-15
1.5987218e-05
-1.2869771e-15
1.5987218e-05
-1.3800211e-15
1.5987218e-05
-1.2101414e-15
1.5987218e-05
-1.2754545e-15
1.5987218e-05
-1.2286696e-15
1.5987218e-05
-1.4860744e-15
1.5987218e-05
-1.4951899e-15
1.5987218e-05
-1.425882e-15
1.5987218e-05
-9.1578539e-16
1.5987218e-05
-3.229993e-16
1.5987218e-05
3.9285719e-16
1.5987218e-05
8.5494262e-16
1.5987218e-05
1.1874422e-15
1.5987218e-05
1.2847122e-15
1.5987218e-05
1.2865369e-15
1.5987218e-05
1.2281383e-15
1.5987218e-05
1.1714501e-15
1.5987218e-05
1.1638234e-15
1.5987218e-05
1.1244894e-15
1.5987218e-05
1.1514832e-15
1.5987218e-05
1.084388e-15
1.5987218e-05
1.0916777e-15
1.5987218e-05
9.3598424e-16
1.5987218e-05
9.9289004e-16
1.5987218e-05
9.1364277e-16
1.5987218e-05
1.1931235e-15
1.5987218e-05
9.987252e-16
1.5987218e-05
8.5653314e-16
1.5987218e-05
-1.030892e-16
1.5987218e-05
-5.1034569e-16
1.5987218e-05
-1.2685766e-15
1.5987218e-05
-8.2998275e-16
1.5987218e-05
-5.5181882e-16
1.5987218e-05
4.641255e-16
1.5987218e-05
9.476111e-16
1.5987218e-05
1.5628615e-15
1.5987218e-05
1.3034704e-15
1.5987218e-05
1.5434831e-15
1.5987218e-05
1.3952562e-15
1.5987218e-05
1.7462291e-15
1.5987218e-05
1.5330269e-15
1.5987218e-05
1.2209099e-15
1.5987218e-05
2.3795033e-16
1.5987218e-05
-4.2142639e-16
1.5987218e-05
-1.0229166e-15
1.5987218e-05
-7.397358e-16
1.5987218e-05
-4.0077411e-16
1.5987218e-05
3.7931519e-16
1.5987218e-05
7.5288644e-16
1.5987218e-05
1.273612e-15
1.5987218e-05
1.3788155e-15
1.5987218e-05
1.6763526e-15
1.5987218e-05
1.6663442e-15
1.5987218e-05
1.6806474e-15
1.5987218e-05
1.2715119e-15
1.5987218e-05
7.7293223e-16
1.5987218e-05
6.5985763e-17
1.5987218e-05
-4.6711174e-16
1.5987218e-05
-9.1565626e-16
1.5987218e-05
-1.1325747e-15
1.5987218e-05
-1.2293476e-15
1.5987218e-05
-1.2238814e-15
1.5987218e-05
-1.1794215e-15
1.5987218e-05
-1.1795837e-15
1.5987218e-05
-1.1428822e-15
1.5987218e-05
-1.1927915e-15
1.5987218e-05
-1.1666765e-15
1.5987218e-05
-1.2520397e-15
1.5987218e-05
-1.1994219e-15
1.5987218e-05
-1.2371553e-15
1.5987218e-05
-1.1582927e-15
1.5987218e-05
-1.3076242e-15
1.5987218e-05
-1.3846632e-15
1.5987218e-05
-1.5009697e-15
1.5987218e-05
-1.2180642e-15
1.5987218e-05
-7.7494037e-16
1.5987218e-05
7.1647491e-18
1.5987218e-05
5.7172168e-16
1.5987218e-05
1.2281331e-15
1.5987218e-05
1.4494389e-15
1.5987218e-05
1.7400124e-15
1.5987218e-05
1.5751852e-15
1.5987218e-05
1.5664869e-15
1.5987218e-05
1.2773684e-15
1.5987218e-05
1.2180919e-15
1.5987218e-05
1.0769384e-15
1.5987218e-05
1.236247e-15
1.5987218e-05
1.2115764e-15
1.5987218e-05
1.3147013e-15
1.5987218e-05
1.2741509e-15
1.5987218e-05
1.3305894e-15
1.5987218e-05
1.283134e-15
1.5987218e-05
1.3185252e-15
1.5987218e-05
1.2793233e-15
1.5987218e-05
1.304188e-15
1.5987218e-05
1.2760087e-15
1.5987218e-05
1.2967986e-15
1.5987218e-05
1.2817557e-15
1.5987218e-05
1.2922513e-15
1.5987218e-05
1.2832201e-15
1.5987218e-05
1.2730891e-15
1.5987218e-05
1.2586744e-15
1.5987218e-05
1.2181161e-15
1.5987218e-05
1.1914486e-15
1.5987218e-05
1.1252882e-15
1.5987218e-05
1.1305034e-15
1.5987218e-05
1.0785583e-15
1.5987218e-05
1.1186587e-15
1.5987218e-05
1.0397342e-15
1.5987218e-05
1.1053521e-15
1.5987218e-05
1.0186642e-15
1.5987218e-05
1.127018e-15
1.5987218e-05
1.0138305e-15
1.5987218e-05
1.1537058e-15
1.5987218e-05
1.0346706e-15
1.5987218e-05
1.2284942e-15
1.5987218e-05
1.0841037e-15
1.5987218e-05
1.2556074e-15
1.5987218e-05
1.0403544e-15
1.5987218e-05
1.2131861e-15
1.5987218e-05
1.1725145e-15
1.5987218e-05
1.5921944e-15
1.5987218e-05
1.8056533e-15
1.5987218e-05
2.0177737e-15
1.5987218e-05
1.6753548e-15
1.5987218e-05
1.1868948e-15
1.5987218e-05
3.9852224e-16
1.5987218e-05
-2.094885e-16
1.5987218e-05
-7.3874211e-16
1.5987218e-05
-1.035807e-15
1.5987218e-05
-1.2064982e-15
1.5987218e-05
-1.2810133e-15
1.5987218e-05
-1.3264283e-15
1.5987218e-05
-1.3734186e-15
1.5987218e-05
-1.4306486e-15
1.5987218e-05
-1.4825814e-15
1.5987218e-05
-1.5482659e-15
1.5987218e-05
-1.5436458e-15
1.5987218e-05
-1.541891e-15
1.5987218e-05
-1.4897163e-15
1.5987218e-05
-1.6150074e-15
1.5987218e-05
-1.7271947e-15
1.5987218e-05
-1.9443355e-15
1.5987218e-05
-1.7552545e-15
1.5987218e-05
-1.4832033e-15
1.5987218e-05
-6.7766945e-16
1.5987218e-05
6.2485687e-17
1.5987218e-05
1.0032242e-15
1.5987218e-05
1.4600476e-15
1.5987218e-05
1.8295112e-15
1.5987218e-05
1.471163e-15
1.5987218e-05
9.0674234e-16
1.5987218e-05
-6.2003713e-17
1.5987218e-05
-6.1156625e-16
1.5987218e-05
-9.5803299e-16
1.5987218e-05
-5.925642e-16
1.5987218e-05
-8.2159119e-17
1.5987218e-05
6.6975787e-16
1.5987218e-05
1.1065338e-15
1.5987218e-05
1.4485625e-15
1.5987218e-05
1.5153462e-15
1.5987218e-05
1.6394978e-15
1.5987218e-05
1.7195326e-15
1.5987218e-05
1.7690133e-15
1.5987218e-05
1.5820632e-15
1.5987218e-05
1.1120838e-15
1.5987218e-05
4.7740884e-16
1.5987218e-05
-1.816898e-16
1.5987218e-05
-6.8448057e-16
1.5987218e-05
-1.0627253e-15
1.5987218e-05
-1.2322957e-15
1.5987218e-05
-1.336355e-15
1.5987218e-05
-1.2983638e-15
1.5987218e-05
-1.2689738e-15
1.5987218e-05
-1.2143703e-15
1.5987218e-05
-1.3489995e-15
1.5987218e-05
-1.4910832e-15
1.5987218e-05
-1.5931896e-15
1.5987218e-05
-1.3892324e-15
1.5987218e-05
-9.1186761e-16
1.5987218e-05
-2.6573979e-16
1.5987218e-05
3.7447985e-16
1.5987218e-05
8.5917224e-16
1.5987218e-05
1.2046229e-15
1.5987218e-05
1.3332717e-15
1.5987218e-05
1.4109163e-15
1.5987218e-05
1.3463854e-15
1.5987218e-05
1.3035754e-15
1.5987218e-05
1.156797e-15
1.5987218e-05
1.2027885e-15
1.5987218e-05
1.2820231e-15
1.5987218e-05
1.5684752e-15
1.5987218e-05
1.531139e-15
1.5987218e-05
1.2886051e-15
1.5987218e-05
5.2559596e-16
1.5987218e-05
-9.6191961e-17
1.5987218e-05
-5.7205303e-16
1.5987218e-05
-4.7757073e-16
1.5987218e-05
-1.5836823e-16
1.5987218e-05
4.2458985e-16
1.5987218e-05
9.5308011e-16
1.5987218e-05
1.3656623e-15
1.5987218e-05
1.6734186e-15
1.5987218e-05
1.6911877e-15
1.5987218e-05
1.7341167e-15
1.5987218e-05
1.5328194e-15
1.5987218e-05
1.5873715e-15
1.5987218e-05
1.4161053e-15
1.5987218e-05
1.5784956e-15
1.5987218e-05
1.416656e-15
1.5987218e-05
1.596618e-15
1.5987218e-05
1.3841208e-15
1.5987218e-05
1.5325173e-15
1.5987218e-05
1.3269605e-15
1.5987218e-05
1.5503302e-15
1.5987218e-05
1.3299823e-15
1.5987218e-05
1.3946182e-15
1.5987218e-05
1.1235579e-15
1.5987218e-05
1.5463215e-15
1.5987218e-05
1.5547268e-15
1.5987218e-05
1.4107152e-15
3.6284538e-16
0.00014027132
0.00033219462
9.2549243e-05
7.5871533e-05
7.0338072e-05
3.0330294e-05
5.9620314e-05
1.4898907e-05
5.4019642e-05
7.4663184e-06
5.0795344e-05
4.40275e-06
4.9011049e-05
2.3763068e-06
4.7964745e-05
1.4156314e-06
4.7384384e-05
7.7184524e-07
4.7052233e-05
4.462856e-07
4.6872682e-05
2.3798569e-07
4.677453e-05
1.309446e-07
4.6724187e-05
6.628394e-08
4.6698685e-05
3.3672911e-08
4.6686925e-05
1.5250468e-08
4.6681893e-05
6.4815228e-09
4.6680252e-05
1.990352e-09
4.6680058e-05
1.4529803e-10
4.6680445e-05
-5.9856058e-10
4.6680961e-05
-7.3712861e-10
4.6681443e-05
-6.742318e-10
4.6681826e-05
-5.2984249e-10
4.668211e-05
-3.9044003e-10
4.6682309e-05
-2.7190459e-10
4.6682444e-05
-1.8348599e-10
4.6682532e-05
-1.1990076e-10
4.6682589e-05
-7.6700711e-11
4.6682624e-05
-4.7946679e-11
4.6682646e-05
-2.9442976e-11
4.6682659e-05
-1.7721887e-11
4.6682667e-05
-1.0483247e-11
4.6682672e-05
-6.0807623e-12
4.6682674e-05
-3.4621887e-12
4.6682676e-05
-1.9265336e-12
4.6682676e-05
-1.0439025e-12
4.6682677e-05
-5.4629569e-13
4.6682677e-05
-2.7254092e-13
4.6682677e-05
-1.2924744e-13
4.6682677e-05
-5.4072207e-14
4.6682677e-05
-1.7652664e-14
4.6682677e-05
1.1821277e-15
4.6682677e-05
7.0377089e-15
4.6682677e-05
9.3907259e-15
4.6682677e-05
5.7838698e-15
4.6682677e-05
3.2574158e-15
4.6682677e-05
2.6002563e-16
4.6682677e-05
3.5169157e-16
4.6682677e-05
7.7331639e-16
4.6682677e-05
3.2279737e-15
4.6682677e-05
3.3973387e-15
4.6682677e-05
4.1761641e-15
4.6682677e-05
2.9479988e-15
4.6682677e-05
2.095626e-15
4.6682677e-05
4.6009803e-17
4.6682677e-05
-1.2802996e-15
4.6682677e-05
-3.040662e-15
4.6682677e-05
-4.0606609e-15
4.6682677e-05
-4.8660516e-15
4.6682677e-05
-4.441948e-15
4.6682677e-05
-4.1315858e-15
4.6682677e-05
-3.5299303e-15
4.6682677e-05
-3.4984461e-15
4.6682677e-05
-3.5167332e-15
4.6682677e-05
-3.8819548e-15
4.6682677e-05
-3.768534e-15
4.6682677e-05
-3.94741e-15
4.6682677e-05
-3.5948933e-15
4.6682677e-05
-3.3059576e-15
4.6682677e-05
-2.8794542e-15
4.6682677e-05
-2.7918646e-15
4.6682677e-05
-2.458863e-15
4.6682677e-05
-2.9759372e-15
4.6682677e-05
-2.8353818e-15
4.6682677e-05
-3.2000515e-15
4.6682677e-05
-2.8396086e-15
4.6682677e-05
-3.0668741e-15
4.6682677e-05
-2.7007752e-15
4.6682677e-05
-3.1130393e-15
4.6682677e-05
-2.8364157e-15
4.6682677e-05
-3.2004728e-15
4.6682677e-05
-2.6434497e-15
4.6682677e-05
-2.9264606e-15
4.6682677e-05
-2.7158024e-15
4.6682677e-05
-3.4549245e-15
4.6682677e-05
-3.274516e-15
4.6682677e-05
-3.1641898e-15
4.6682677e-05
-1.6289205e-15
4.6682677e-05
-3.8303592e-16
4.6682677e-05
1.4327183e-15
4.6682677e-05
2.2886314e-15
4.6682677e-05
3.1363819e-15
4.6682677e-05
3.2028494e-15
4.6682677e-05
3.3062773e-15
4.6682677e-05
3.0150689e-15
4.6682677e-05
3.0022881e-15
4.6682677e-05
2.8008437e-15
4.6682677e-05
2.8490684e-15
4.6682677e-05
2.7346023e-15
4.6682677e-05
2.7903056e-15
4.6682677e-05
2.6261471e-15
4.6682677e-05
2.5230009e-15
4.6682677e-05
2.4576559e-15
4.6682677e-05
2.6162737e-15
4.6682677e-05
3.0010565e-15
4.6682677e-05
2.805842e-15
4.6682677e-05
2.095169e-15
4.6682677e-05
6.1993294e-17
4.6682677e-05
-1.1742413e-15
4.6682677e-05
-2.4553369e-15
4.6682677e-05
-1.7153188e-15
4.6682677e-05
-8.1873945e-16
4.6682677e-05
1.0099098e-15
4.6682677e-05
2.1513997e-15
4.6682677e-05
3.1622791e-15
4.6682677e-05
3.0583895e-15
4.6682677e-05
3.336478e-15
4.6682677e-05
3.4109266e-15
4.6682677e-05
3.9141755e-15
4.6682677e-05
3.5208385e-15
4.6682677e-05
2.4390722e-15
4.6682677e-05
1.9187899e-16
4.6682677e-05
-1.4221344e-15
4.6682677e-05
-2.3381356e-15
4.6682677e-05
-1.71587e-15
4.6682677e-05
-5.9787363e-16
4.6682677e-05
8.8636385e-16
4.6682677e-05
1.7850892e-15
4.6682677e-05
2.7905759e-15
4.6682677e-05
3.2296694e-15
4.6682677e-05
3.8624119e-15
4.6682677e-05
3.9350899e-15
4.6682677e-05
3.7726328e-15
4.6682677e-05
2.664864e-15
4.6682677e-05
1.3711261e-15
4.6682677e-05
-2.8314147e-16
4.6682677e-05
-1.4909217e-15
4.6682677e-05
-2.4569819e-15
4.6682677e-05
-2.983946e-15
4.6682677e-05
-3.1827147e-15
4.6682677e-05
-3.1727703e-15
4.6682677e-05
-3.0275484e-15
4.6682677e-05
-2.9864394e-15
4.6682677e-05
-2.8774626e-15
4.6682677e-05
-2.9441035e-15
4.6682677e-05
-2.9006135e-15
4.6682677e-05
-3.0619816e-15
4.6682677e-05
-2.9716673e-15
4.6682677e-05
-2.9961248e-15
4.6682677e-05
-2.8685614e-15
4.6682677e-05
-3.1869531e-15
4.6682677e-05
-3.4474256e-15
4.6682677e-05
-3.6052958e-15
4.6682677e-05
-2.7922398e-15
4.6682677e-05
-1.6025285e-15
4.6682677e-05
2.4335038e-16
4.6682677e-05
1.5232418e-15
4.6682677e-05
2.8918122e-15
4.6682677e-05
3.5124475e-15
4.6682677e-05
4.1131397e-15
4.6682677e-05
3.9213352e-15
4.6682677e-05
3.848998e-15
4.6682677e-05
3.337796e-15
4.6682677e-05
3.1780556e-15
4.6682677e-05
2.885927e-15
4.6682677e-05
3.1398925e-15
4.6682677e-05
3.1284918e-15
4.6682677e-05
3.2965747e-15
4.6682677e-05
3.2441178e-15
4.6682677e-05
3.3265246e-15
4.6682677e-05
3.2440166e-15
4.6682677e-05
3.2905177e-15
4.6682677e-05
3.2179751e-15
4.6682677e-05
3.255702e-15
4.6682677e-05
3.1983444e-15
4.6682677e-05
3.2535093e-15
4.6682677e-05
3.217151e-15
4.6682677e-05
3.272683e-15
4.6682677e-05
3.2349307e-15
4.6682677e-05
3.2479093e-15
4.6682677e-05
3.1959878e-15
4.6682677e-05
3.114029e-15
4.6682677e-05
3.0353572e-15
4.6682677e-05
2.8997635e-15
4.6682677e-05
2.8964423e-15
4.6682677e-05
2.8192599e-15
4.6682677e-05
2.8581483e-15
4.6682677e-05
2.7308307e-15
4.6682677e-05
2.8045238e-15
4.6682677e-05
2.6964628e-15
4.6682677e-05
2.8622896e-15
4.6682677e-05
2.7205062e-15
4.6682677e-05
2.9218764e-15
4.6682677e-05
2.7835218e-15
4.6682677e-05
3.0799624e-15
4.6682677e-05
2.8835494e-15
4.6682677e-05
3.0801769e-15
4.6682677e-05
2.6251023e-15
4.6682677e-05
2.7844024e-15
4.6682677e-05
2.7139226e-15
4.6682677e-05
3.4874348e-15
4.6682677e-05
3.9950761e-15
4.6682677e-05
4.2582187e-15
4.6682677e-05
3.3502837e-15
4.6682677e-05
2.0483694e-15
4.6682677e-05
2.5700995e-16
4.6682677e-05
-1.0438462e-15
4.6682677e-05
-2.1924042e-15
4.6682677e-05
-2.7935554e-15
4.6682677e-05
-3.1964817e-15
4.6682677e-05
-3.2979178e-15
4.6682677e-05
-3.3390024e-15
4.6682677e-05
-3.3487644e-15
4.6682677e-05
-3.384631e-15
4.6682677e-05
-3.4414842e-15
4.6682677e-05
-3.5197454e-15
4.6682677e-05
-3.4613103e-15
4.6682677e-05
-3.3730081e-15
4.6682677e-05
-3.2643032e-15
4.6682677e-05
-3.5338065e-15
4.6682677e-05
-3.8629427e-15
4.6682677e-05
-4.2309636e-15
4.6682677e-05
-3.7399814e-15
4.6682677e-05
-2.8532025e-15
4.6682677e-05
-1.1446211e-15
4.6682677e-05
6.2792486e-16
4.6682677e-05
2.4992348e-15
4.6682677e-05
3.6381862e-15
4.6682677e-05
4.1995666e-15
4.6682677e-05
3.2103402e-15
4.6682677e-05
1.6710878e-15
4.6682677e-05
-5.8838211e-16
4.6682677e-05
-1.8705161e-15
4.6682677e-05
-2.3543298e-15
4.6682677e-05
-1.5614187e-15
4.6682677e-05
-1.5594291e-16
4.6682677e-05
1.3841294e-15
4.6682677e-05
2.4274769e-15
4.6682677e-05
3.1830171e-15
4.6682677e-05
3.4490411e-15
4.6682677e-05
3.7811954e-15
4.6682677e-05
4.0217115e-15
4.6682677e-05
4.0421967e-15
4.6682677e-05
3.386123e-15
4.6682677e-05
2.1836362e-15
4.6682677e-05
5.6706179e-16
4.6682677e-05
-8.7790984e-16
4.6682677e-05
-2.0214329e-15
4.6682677e-05
-2.8615644e-15
4.6682677e-05
-3.2773275e-15
4.6682677e-05
-3.4507558e-15
4.6682677e-05
-3.2943752e-15
4.6682677e-05
-3.0890896e-15
4.6682677e-05
-2.9607077e-15
4.6682677e-05
-3.23394e-15
4.6682677e-05
-3.6321422e-15
4.6682677e-05
-3.7533221e-15
4.6682677e-05
-3.1359705e-15
4.6682677e-05
-1.8414266e-15
4.6682677e-05
-2.6523537e-16
4.6682677e-05
1.1444347e-15
4.6682677e-05
2.2787869e-15
4.6682677e-05
3.0181051e-15
4.6682677e-05
3.41091e-15
4.6682677e-05
3.5654471e-15
4.6682677e-05
3.4629702e-15
4.6682677e-05
3.2592492e-15
4.6682677e-05
2.9165497e-15
4.6682677e-05
2.9603757e-15
4.6682677e-05
3.2907849e-15
4.6682677e-05
3.9078194e-15
4.6682677e-05
3.810083e-15
4.6682677e-05
2.9047969e-15
4.6682677e-05
9.1526929e-16
4.6682677e-05
-6.1099541e-16
4.6682677e-05
-1.5448536e-15
4.6682677e-05
-1.2433451e-15
4.6682677e-05
-3.4277503e-16
4.6682677e-05
8.5485424e-16
4.6682677e-05
2.0167401e-15
4.6682677e-05
2.958315e-15
4.6682677e-05
3.692879e-15
4.6682677e-05
3.8639444e-15
4.6682677e-05
3.8834355e-15
4.6682677e-05
3.5203556e-15
4.6682677e-05
3.4979441e-15
4.6682677e-05
3.23644e-15
4.6682677e-05
3.4539962e-15
4.6682677e-05
3.2778834e-15
4.6682677e-05
3.5201723e-15
4.6682677e-05
3.2496501e-15
4.6682677e-05
3.397091e-15
4.6682677e-05
3.1650362e-15
4.6682677e-05
3.5165514e-15
4.6682677e-05
3.2386956e-15
4.6682677e-05
3.095882e-15
4.6682677e-05
2.7100362e-15
4.6682677e-05
3.6717623e-15
4.6682677e-05
4.0153769e-15
4.6682677e-05
3.0777319e-15
6.7663981e-16
0.00019469214
0.00040416928
0.00014360962
0.00012695406
0.00011230147
6.1638439e-05
9.6619294e-05
3.058109e-05
8.7762221e-05
1.6323394e-05
8.2755406e-05
9.4095669e-06
7.9871701e-05
5.2600132e-06
7.8206033e-05
3.0813001e-06
7.7256668e-05
1.7212105e-06
7.6718195e-05
9.8475853e-07
7.6420463e-05
5.3571694e-07
7.6258218e-05
2.9318815e-07
7.6172993e-05
1.5150859e-07
7.61296e-05
7.7065709e-08
7.6108851e-05
3.5999271e-08
7.6099695e-05
1.5637241e-08
7.6096324e-05
5.3613928e-09
7.6095587e-05
8.822676e-10
7.6095937e-05
-9.4765566e-10
7.6096611e-05
-1.4116491e-09
7.609729e-05
-1.3535173e-09
7.6097854e-05
-1.093299e-09
7.609828e-05
-8.165848e-10
7.6098584e-05
-5.7542371e-10
7.6098791e-05
-3.9114529e-10
7.6098929e-05
-2.5746473e-10
7.6099018e-05
-1.6555302e-10
7.6099074e-05
-1.0405149e-10
7.6099108e-05
-6.4176602e-11
7.609913e-05
-3.8818685e-11
7.6099142e-05
-2.3066807e-11
7.609915e-05
-1.3446536e-11
7.6099154e-05
-7.6905115e-12
7.6099156e-05
-4.3020847e-12
7.6099157e-05
-2.346334e-12
7.6099158e-05
-1.239735e-12
7.6099158e-05
-6.2777418e-13
7.6099159e-05
-3.0195247e-13
7.6099159e-05
-1.310172e-13
7.6099159e-05
-4.7433217e-14
7.6099159e-05
-6.4002289e-15
7.6099159e-05
8.3455736e-15
7.6099159e-05
1.4318465e-14
7.6099159e-05
1.0892113e-14
7.6099159e-05
8.0424747e-15
7.6099159e-05
3.7444024e-15
7.6099159e-05
2.8621372e-15
7.6099159e-05
2.1699762e-15
7.6099159e-05
4.1383563e-15
7.6099159e-05
3.7682826e-15
7.6099159e-05
4.5096126e-15
7.6099159e-05
3.0635189e-15
7.6099159e-05
2.3726195e-15
7.6099159e-05
2.404503e-16
7.6099159e-05
-9.9149506e-16
7.6099159e-05
-2.8759711e-15
7.6099159e-05
-3.8793577e-15
7.6099159e-05
-4.7772916e-15
7.6099159e-05
-4.2733667e-15
7.6099159e-05
-3.9279615e-15
7.6099159e-05
-3.3079708e-15
7.6099159e-05
-3.1914069e-15
7.6099159e-05
-3.187504e-15
7.6099159e-05
-3.513733e-15
7.6099159e-05
-3.4371152e-15
7.6099159e-05
-3.6453757e-15
7.6099159e-05
-3.3296872e-15
7.6099159e-05
-3.1078442e-15
7.6099159e-05
-2.6889842e-15
7.6099159e-05
-2.6329476e-15
7.6099159e-05
-2.3087099e-15
7.6099159e-05
-2.7470696e-15
7.6099159e-05
-2.6540359e-15
7.6099159e-05
-2.9288283e-15
7.6099159e-05
-2.6256502e-15
7.6099159e-05
-2.7823337e-15
7.6099159e-05
-2.4746113e-15
7.6099159e-05
-2.8172032e-15
7.6099159e-05
-2.5938256e-15
7.6099159e-05
-2.8961612e-15
7.6099159e-05
-2.4308087e-15
7.6099159e-05
-2.6858998e-15
7.6099159e-05
-2.5416993e-15
7.6099159e-05
-3.1934048e-15
7.6099159e-05
-3.0472291e-15
7.6099159e-05
-2.8397701e-15
7.6099159e-05
-1.4836801e-15
7.6099159e-05
-2.5162532e-16
7.6099159e-05
1.3250623e-15
7.6099159e-05
2.1373834e-15
7.6099159e-05
2.8369189e-15
7.6099159e-05
2.9300001e-15
7.6099159e-05
2.9624561e-15
7.6099159e-05
2.7558108e-15
7.6099159e-05
2.6737031e-15
7.6099159e-05
2.5653727e-15
7.6099159e-05
2.5212263e-15
7.6099159e-05
2.4999185e-15
7.6099159e-05
2.429924e-15
7.6099159e-05
2.3646643e-15
7.6099159e-05
2.1208125e-15
7.6099159e-05
2.1707633e-15
7.6099159e-05
2.0981535e-15
7.6099159e-05
2.5255584e-15
7.6099159e-05
2.0757783e-15
7.6099159e-05
1.5005812e-15
7.6099159e-05
-5.9007996e-16
7.6099159e-05
-1.5219024e-15
7.6099159e-05
-2.9095606e-15
7.6099159e-05
-1.937991e-15
7.6099159e-05
-1.2162272e-15
7.6099159e-05
8.0785594e-16
7.6099159e-05
1.8558565e-15
7.6099159e-05
3.1076313e-15
7.6099159e-05
2.7789225e-15
7.6099159e-05
3.2732147e-15
7.6099159e-05
3.1036987e-15
7.6099159e-05
3.6920227e-15
7.6099159e-05
3.1001407e-15
7.6099159e-05
2.1520838e-15
7.6099159e-05
-2.1343045e-17
7.6099159e-05
-1.3087056e-15
7.6099159e-05
-2.2182532e-15
7.6099159e-05
-1.387146e-15
7.6099159e-05
-5.1220768e-16
7.6099159e-05
1.0007128e-15
7.6099159e-05
1.684339e-15
7.6099159e-05
2.7243872e-15
7.6099159e-05
3.0338382e-15
7.6099159e-05
3.7205715e-15
7.6099159e-05
3.6851497e-15
7.6099159e-05
3.5534566e-15
7.6099159e-05
2.4562113e-15
7.6099159e-05
1.2715169e-15
7.6099159e-05
-2.7244334e-16
7.6099159e-05
-1.3263911e-15
7.6099159e-05
-2.2325742e-15
7.6099159e-05
-2.6617719e-15
7.6099159e-05
-2.8712123e-15
7.6099159e-05
-2.8321294e-15
7.6099159e-05
-2.7188436e-15
7.6099159e-05
-2.668009e-15
7.6099159e-05
-2.576868e-15
7.6099159e-05
-2.6467361e-15
7.6099159e-05
-2.6107929e-15
7.6099159e-05
-2.7798225e-15
7.6099159e-05
-2.6862641e-15
7.6099159e-05
-2.7404149e-15
7.6099159e-05
-2.6126867e-15
7.6099159e-05
-2.944309e-15
7.6099159e-05
-3.1293954e-15
7.6099159e-05
-3.2296704e-15
7.6099159e-05
-2.4075799e-15
7.6099159e-05
-1.2571241e-15
7.6099159e-05
4.7584476e-16
7.6099159e-05
1.6213953e-15
7.6099159e-05
2.9461512e-15
7.6099159e-05
3.4544378e-15
7.6099159e-05
4.10526e-15
7.6099159e-05
3.8292563e-15
7.6099159e-05
3.7936991e-15
7.6099159e-05
3.1611276e-15
7.6099159e-05
2.9722083e-15
7.6099159e-05
2.5943506e-15
7.6099159e-05
2.8832856e-15
7.6099159e-05
2.8251646e-15
7.6099159e-05
3.0525666e-15
7.6099159e-05
2.9638947e-15
7.6099159e-05
3.0892683e-15
7.6099159e-05
2.9720538e-15
7.6099159e-05
3.0523247e-15
7.6099159e-05
2.9454034e-15
7.6099159e-05
3.0094907e-15
7.6099159e-05
2.9218961e-15
7.6099159e-05
2.9918397e-15
7.6099159e-05
2.930682e-15
7.6099159e-05
2.987502e-15
7.6099159e-05
2.9298967e-15
7.6099159e-05
2.9389591e-15
7.6099159e-05
2.8617201e-15
7.6099159e-05
2.7877083e-15
7.6099159e-05
2.6833563e-15
7.6099159e-05
2.5736291e-15
7.6099159e-05
2.5554757e-15
7.6099159e-05
2.4948309e-15
7.6099159e-05
2.5389605e-15
7.6099159e-05
2.4235576e-15
7.6099159e-05
2.525259e-15
7.6099159e-05
2.4104823e-15
7.6099159e-05
2.6099125e-15
7.6099159e-05
2.4312708e-15
7.6099159e-05
2.6808733e-15
7.6099159e-05
2.4775429e-15
7.6099159e-05
2.8261602e-15
7.6099159e-05
2.518351e-15
7.6099159e-05
2.7563379e-15
7.6099159e-05
2.2025691e-15
7.6099159e-05
2.4475289e-15
7.6099159e-05
2.32372e-15
7.6099159e-05
3.2038114e-15
7.6099159e-05
3.6289309e-15
7.6099159e-05
3.9727384e-15
7.6099159e-05
3.0387087e-15
7.6099159e-05
1.8959005e-15
7.6099159e-05
1.7306095e-16
7.6099159e-05
-9.6556167e-16
7.6099159e-05
-2.050354e-15
7.6099159e-05
-2.5857637e-15
7.6099159e-05
-2.988851e-15
7.6099159e-05
-3.0831798e-15
7.6099159e-05
-3.1548904e-15
7.6099159e-05
-3.15206e-15
7.6099159e-05
-3.2023527e-15
7.6099159e-05
-3.2211701e-15
7.6099159e-05
-3.2974724e-15
7.6099159e-05
-3.2106407e-15
7.6099159e-05
-3.1503031e-15
7.6099159e-05
-3.0352366e-15
7.6099159e-05
-3.3303556e-15
7.6099159e-05
-3.6061729e-15
7.6099159e-05
-3.972673e-15
7.6099159e-05
-3.4332571e-15
7.6099159e-05
-2.6510992e-15
7.6099159e-05
-9.4564833e-16
7.6099159e-05
6.3730357e-16
7.6099159e-05
2.4562362e-15
7.6099159e-05
3.3605779e-15
7.6099159e-05
3.8542595e-15
7.6099159e-05
2.8374758e-15
7.6099159e-05
1.3957073e-15
7.6099159e-05
-6.6204433e-16
7.6099159e-05
-1.7111097e-15
7.6099159e-05
-2.1468478e-15
7.6099159e-05
-1.25458e-15
7.6099159e-05
-4.0881267e-17
7.6099159e-05
1.4290459e-15
7.6099159e-05
2.3270108e-15
7.6099159e-05
3.031987e-15
7.6099159e-05
3.2737853e-15
7.6099159e-05
3.5981621e-15
7.6099159e-05
3.7859969e-15
7.6099159e-05
3.7430488e-15
7.6099159e-05
3.0977292e-15
7.6099159e-05
1.9068371e-15
7.6099159e-05
4.4341956e-16
7.6099159e-05
-8.8902269e-16
7.6099159e-05
-1.9143399e-15
7.6099159e-05
-2.6694931e-15
7.6099159e-05
-3.0477497e-15
7.6099159e-05
-3.2075711e-15
7.6099159e-05
-3.0620387e-15
7.6099159e-05
-2.884764e-15
7.6099159e-05
-2.7650379e-15
7.6099159e-05
-3.039449e-15
7.6099159e-05
-3.3671344e-15
7.6099159e-05
-3.445477e-15
7.6099159e-05
-2.8182337e-15
7.6099159e-05
-1.5923056e-15
7.6099159e-05
-1.4299272e-16
7.6099159e-05
1.1638896e-15
7.6099159e-05
2.1534117e-15
7.6099159e-05
2.860052e-15
7.6099159e-05
3.1817279e-15
7.6099159e-05
3.3540734e-15
7.6099159e-05
3.2188192e-15
7.6099159e-05
3.0457384e-15
7.6099159e-05
2.6969318e-15
7.6099159e-05
2.7728993e-15
7.6099159e-05
3.0316222e-15
7.6099159e-05
3.5927383e-15
7.6099159e-05
3.3701761e-15
7.6099159e-05
2.4730155e-15
7.6099159e-05
6.060294e-16
7.6099159e-05
-7.3163084e-16
7.6099159e-05
-1.5026435e-15
7.6099159e-05
-1.0954755e-15
7.6099159e-05
-2.6265953e-16
7.6099159e-05
8.810509e-16
7.6099159e-05
1.9418446e-15
7.6099159e-05
2.7989647e-15
7.6099159e-05
3.5184324e-15
7.6099159e-05
3.6364481e-15
7.6099159e-05
3.7272229e-15
7.6099159e-05
3.3246895e-15
7.6099159e-05
3.383992e-15
7.6099159e-05
3.05421e-15
7.6099159e-05
3.3481518e-15
7.6099159e-05
3.0727735e-15
7.6099159e-05
3.4048516e-15
7.6099159e-05
3.0328831e-15
7.6099159e-05
3.2929496e-15
7.6099159e-05
2.9595762e-15
7.6099159e-05
3.396806e-15
7.6099159e-05
2.993981e-15
7.6099159e-05
3.0067293e-15
7.6099159e-05
2.5612693e-15
7.6099159e-05
3.552718e-15
7.6099159e-05
3.6254272e-15
7.6099159e-05
2.8372863e-15
5.2187187e-16
0.00023312986
0.00043770621
0.00018548527
0.00017459866
0.00015018421
9.6939507e-05
0.0001310242
4.9741116e-05
0.00011965162
2.7695988e-05
0.0001131446
1.5916601e-05
0.00010931814
9.0864817e-06
0.00010710183
5.2976127e-06
0.00010582149
3.0015458e-06
0.00010509347
1.7127824e-06
0.00010468612
9.4305748e-07
0.00010446306
5.1624217e-07
0.00010434425
2.7031994e-07
0.00010428311
1.3819972e-07
0.00010425319
6.5918382e-08
0.00010423959
2.9236867e-08
0.0001042342
1.0753395e-08
0.00010423268
2.4045991e-09
0.00010423281
-1.0815254e-09
0.00010423352
-2.1173186e-09
0.00010423431
-2.1451892e-09
0.000104235
-1.7802349e-09
0.00010423553
-1.3486045e-09
0.00010423592
-9.6065017e-10
0.00010423618
-6.5772238e-10
0.00010423636
-4.3572937e-10
0.00010423648
-2.815557e-10
0.00010423655
-1.7780014e-10
0.0001042366
-1.1010929e-10
0.00010423662
-6.6883374e-11
0.00010423664
-3.9900428e-11
0.00010423665
-2.3356596e-11
0.00010423666
-1.341317e-11
0.00010423666
-7.5386174e-12
0.00010423666
-4.1348055e-12
0.00010423666
-2.2012026e-12
0.00010423666
-1.1262966e-12
0.00010423666
-5.4805813e-13
0.00010423666
-2.4356292e-13
0.00010423666
-9.3294235e-14
0.00010423666
-2.0894906e-14
0.00010423666
6.9968986e-15
0.00010423666
1.8127958e-14
0.00010423666
1.5960714e-14
0.00010423666
1.3075379e-14
0.00010423666
8.0329088e-15
0.00010423666
6.1848158e-15
0.00010423666
3.9582095e-15
0.00010423666
4.6443218e-15
0.00010423666
3.1278904e-15
0.00010423666
3.24047e-15
0.00010423666
1.4355571e-15
0.00010423666
9.9397766e-16
0.00010423666
-4.4917311e-16
0.00010423666
-7.4674216e-16
0.00010423666
-1.9387056e-15
0.00010423666
-2.5778804e-15
0.00010423666
-3.4121617e-15
0.00010423666
-2.9837838e-15
0.00010423666
-2.7449959e-15
0.00010423666
-2.0694594e-15
0.00010423666
-1.9354164e-15
0.00010423666
-1.8598625e-15
0.00010423666
-2.3327393e-15
0.00010423666
-2.2303087e-15
0.00010423666
-2.477199e-15
0.00010423666
-1.9987641e-15
0.00010423666
-1.729166e-15
0.00010423666
-1.2862761e-15
0.00010423666
-1.3122752e-15
0.00010423666
-9.3084502e-16
0.00010423666
-1.4902241e-15
0.00010423666
-1.2480471e-15
0.00010423666
-1.6290152e-15
0.00010423666
-1.1711669e-15
0.00010423666
-1.4114504e-15
0.00010423666
-9.3326397e-16
0.00010423666
-1.3597167e-15
0.00010423666
-9.6977446e-16
0.00010423666
-1.417072e-15
0.00010423666
-8.6989127e-16
0.00010423666
-1.3679424e-15
0.00010423666
-1.1112016e-15
0.00010423666
-1.7545302e-15
0.00010423666
-1.2575818e-15
0.00010423666
-1.1640076e-15
0.00010423666
5.4265439e-17
0.00010423666
4.5731177e-16
0.00010423666
1.3345874e-15
0.00010423666
1.3370326e-15
0.00010423666
1.6819667e-15
0.00010423666
1.4938319e-15
0.00010423666
1.5931543e-15
0.00010423666
1.357457e-15
0.00010423666
1.4004431e-15
0.00010423666
1.2108649e-15
0.00010423666
1.2455981e-15
0.00010423666
1.1395726e-15
0.00010423666
1.1383337e-15
0.00010423666
9.5484685e-16
0.00010423666
8.0885333e-16
0.00010423666
7.3774998e-16
0.00010423666
6.0039604e-16
0.00010423666
5.9163202e-16
0.00010423666
-7.5162449e-17
0.00010423666
-5.3867676e-16
0.00010423666
-1.9595964e-15
0.00010423666
-1.8596964e-15
0.00010423666
-2.3980217e-15
0.00010423666
-1.136655e-15
0.00010423666
-7.8196155e-16
0.00010423666
5.2980071e-16
0.00010423666
9.6412483e-16
0.00010423666
1.7958541e-15
0.00010423666
1.4494905e-15
0.00010423666
1.9223347e-15
0.00010423666
1.7456811e-15
0.00010423666
1.9645984e-15
0.00010423666
1.1101e-15
0.00010423666
3.0440304e-16
0.00010423666
-1.0926559e-15
0.00010423666
-1.2012286e-15
0.00010423666
-1.1092203e-15
0.00010423666
-4.7115669e-17
0.00010423666
4.4944576e-16
0.00010423666
1.1120541e-15
0.00010423666
1.0082651e-15
0.00010423666
1.573872e-15
0.00010423666