/*--------------------------------*- C++ -*----------------------------------*\
| =========                 |                                                 |
| \\      /  F ield         | OpenFOAM: The Open Source CFD Toolbox           |
|  \\    /   O peration     | Version:  2206                                  |
|   \\  /    A nd           | Website:  www.openfoam.com                      |
|    \\/     M anipulation  |                                                 |
\*---------------------------------------------------------------------------*/
FoamFile
{
    version     2.0;
    format      ascii;
    arch        "LSB;label=32;scalar=64";
    class       volVectorField;
    location    "16";
    object      U;
}
// * * * * * * * * * * * * * * * * * * * * * * * * * * * * * * * * * * * * * //

dimensions      [0 1 -1 0 0 0 0];

internalField   nonuniform List<vector> 
15000
(
(0.15962853 0.053997676 0)
(0.11557193 0.0064916365 0)
(0.06425136 0.0014144142 0)
(0.055918598 0.00074959401 0)
(0.047595817 0.00028826236 0)
(0.044708799 0.0001988381 0)
(0.042412495 9.0518959e-05 0)
(0.041406638 6.0127574e-05 0)
(0.040707476 2.8981556e-05 0)
(0.04037699 1.802323e-05 0)
(0.040167797 8.6657294e-06 0)
(0.04006866 4.9985963e-06 0)
(0.040011054 2.2693695e-06 0)
(0.039985308 1.1746532e-06 0)
(0.039971973 4.4689685e-07 0)
(0.039967049 1.7377226e-07 0)
(0.03996518 1.3861006e-08 0)
(0.039965127 -3.0434369e-08 0)
(0.039965544 -4.8855396e-08 0)
(0.039966152 -4.3372259e-08 0)
(0.03996668 -3.5824046e-08 0)
(0.039967111 -2.6074749e-08 0)
(0.039967422 -1.8542551e-08 0)
(0.039967642 -1.2435398e-08 0)
(0.03996779 -8.2136418e-09 0)
(0.039967887 -5.2367432e-09 0)
(0.039967949 -3.2969693e-09 0)
(0.039967988 -2.0227984e-09 0)
(0.039968012 -1.224535e-09 0)
(0.039968026 -7.2429134e-10 0)
(0.039968035 -4.2224437e-10 0)
(0.03996804 -2.4092151e-10 0)
(0.039968042 -1.3530432e-10 0)
(0.039968044 -7.3898228e-11 0)
(0.039968045 -3.9033848e-11 0)
(0.039968045 -1.9629144e-11 0)
(0.039968045 -9.1265159e-12 0)
(0.039968046 -4.1361144e-12 0)
(0.039968046 -1.3897239e-12 0)
(0.039968046 -2.0148656e-13 0)
(0.039968046 7.0522678e-13 0)
(0.039968046 8.1477797e-13 0)
(0.039968046 1.0502895e-12 0)
(0.039968046 5.4002571e-13 0)
(0.039968046 2.8126073e-13 0)
(0.039968046 -1.8430374e-13 0)
(0.039968046 -1.6381634e-13 0)
(0.039968046 -8.99838e-14 0)
(0.039968046 3.8126066e-13 0)
(0.039968046 4.8542292e-13 0)
(0.039968046 7.1985656e-13 0)
(0.039968046 5.8340699e-13 0)
(0.039968046 4.9449793e-13 0)
(0.039968046 1.1171358e-13 0)
(0.039968046 -1.744079e-13 0)
(0.039968046 -5.352425e-13 0)
(0.039968046 -7.1355157e-13 0)
(0.039968046 -8.2784196e-13 0)
(0.039968046 -7.127044e-13 0)
(0.039968046 -6.5695147e-13 0)
(0.039968046 -5.7602131e-13 0)
(0.039968046 -5.7835496e-13 0)
(0.039968046 -5.7181239e-13 0)
(0.039968046 -6.0088596e-13 0)
(0.039968046 -5.7471032e-13 0)
(0.039968046 -6.0889442e-13 0)
(0.039968046 -5.8159009e-13 0)
(0.039968046 -5.6401729e-13 0)
(0.039968046 -5.2134203e-13 0)
(0.039968046 -5.1487617e-13 0)
(0.039968046 -4.6849789e-13 0)
(0.039968046 -5.3597929e-13 0)
(0.039968046 -5.2311142e-13 0)
(0.039968046 -5.6683355e-13 0)
(0.039968046 -5.2657566e-13 0)
(0.039968046 -5.5699391e-13 0)
(0.039968046 -5.1749734e-13 0)
(0.039968046 -5.7185036e-13 0)
(0.039968046 -5.3990516e-13 0)
(0.039968046 -5.8346735e-13 0)
(0.039968046 -5.0828207e-13 0)
(0.039968046 -5.3292848e-13 0)
(0.039968046 -5.0411615e-13 0)
(0.039968046 -6.1217038e-13 0)
(0.039968046 -6.2181471e-13 0)
(0.039968046 -6.1803971e-13 0)
(0.039968046 -4.097526e-13 0)
(0.039968046 -1.8053273e-13 0)
(0.039968046 1.3131477e-13 0)
(0.039968046 3.2817286e-13 0)
(0.039968046 4.8372343e-13 0)
(0.039968046 5.2318298e-13 0)
(0.039968046 5.3519406e-13 0)
(0.039968046 5.0286285e-13 0)
(0.039968046 4.9198033e-13 0)
(0.039968046 4.7879608e-13 0)
(0.039968046 4.7935312e-13 0)
(0.039968046 4.7643444e-13 0)
(0.039968046 4.7021535e-13 0)
(0.039968046 4.5858318e-13 0)
(0.039968046 4.2048158e-13 0)
(0.039968046 4.2054568e-13 0)
(0.039968046 4.2474825e-13 0)
(0.039968046 5.26303e-13 0)
(0.039968046 5.1021555e-13 0)
(0.039968046 4.3744153e-13 0)
(0.039968046 9.3864678e-14 0)
(0.039968046 -1.3738235e-13 0)
(0.039968046 -4.1980829e-13 0)
(0.039968046 -3.2337247e-13 0)
(0.039968046 -1.8586093e-13 0)
(0.039968046 1.7114292e-13 0)
(0.039968046 3.8724531e-13 0)
(0.039968046 5.9016387e-13 0)
(0.039968046 5.4249788e-13 0)
(0.039968046 5.9373042e-13 0)
(0.039968046 5.7946339e-13 0)
(0.039968046 7.0231088e-13 0)
(0.039968046 6.7583048e-13 0)
(0.039968046 5.4852002e-13 0)
(0.039968046 1.716518e-13 0)
(0.039968046 -1.4839969e-13 0)
(0.039968046 -4.0798324e-13 0)
(0.039968046 -3.5549415e-13 0)
(0.039968046 -1.9220548e-13 0)
(0.039968046 1.079494e-13 0)
(0.039968046 3.0299681e-13 0)
(0.039968046 4.9836073e-13 0)
(0.039968046 5.5795334e-13 0)
(0.039968046 6.5426338e-13 0)
(0.039968046 6.7203928e-13 0)
(0.039968046 6.8114673e-13 0)
(0.039968046 5.4061856e-13 0)
(0.039968046 3.376559e-13 0)
(0.039968046 5.0404432e-14 0)
(0.039968046 -1.8489411e-13 0)
(0.039968046 -3.7428888e-13 0)
(0.039968046 -4.7315872e-13 0)
(0.039968046 -5.1187824e-13 0)
(0.039968046 -5.1195946e-13 0)
(0.039968046 -4.9463777e-13 0)
(0.039968046 -4.9475807e-13 0)
(0.039968046 -4.833609e-13 0)
(0.039968046 -4.9875911e-13 0)
(0.039968046 -4.9121042e-13 0)
(0.039968046 -5.1769074e-13 0)
(0.039968046 -5.0301934e-13 0)
(0.039968046 -5.089776e-13 0)
(0.039968046 -4.8019654e-13 0)
(0.039968046 -5.2650141e-13 0)
(0.039968046 -5.7212698e-13 0)
(0.039968046 -6.3014908e-13 0)
(0.039968046 -5.4681293e-13 0)
(0.039968046 -3.7667354e-13 0)
(0.039968046 -6.731345e-14 0)
(0.039968046 1.8436203e-13 0)
(0.039968046 4.4774314e-13 0)
(0.039968046 5.6171826e-13 0)
(0.039968046 6.6183539e-13 0)
(0.039968046 6.1940477e-13 0)
(0.039968046 6.0947083e-13 0)
(0.039968046 5.2799178e-13 0)
(0.039968046 5.1038133e-13 0)
(0.039968046 4.7185406e-13 0)
(0.039968046 5.1727957e-13 0)
(0.039968046 5.1326066e-13 0)
(0.039968046 5.4134719e-13 0)
(0.039968046 5.3285332e-13 0)
(0.039968046 5.4784219e-13 0)
(0.039968046 5.3617636e-13 0)
(0.039968046 5.4512758e-13 0)
(0.039968046 5.3574318e-13 0)
(0.039968046 5.4230426e-13 0)
(0.039968046 5.3599582e-13 0)
(0.039968046 5.4262032e-13 0)
(0.039968046 5.4033874e-13 0)
(0.039968046 5.4579671e-13 0)
(0.039968046 5.4549512e-13 0)
(0.039968046 5.4530167e-13 0)
(0.039968046 5.4362447e-13 0)
(0.039968046 5.319496e-13 0)
(0.039968046 5.2428537e-13 0)
(0.039968046 4.9976588e-13 0)
(0.039968046 4.9898453e-13 0)
(0.039968046 4.8152865e-13 0)
(0.039968046 4.9113427e-13 0)
(0.039968046 4.6617977e-13 0)
(0.039968046 4.810521e-13 0)
(0.039968046 4.5566542e-13 0)
(0.039968046 4.8466494e-13 0)
(0.039968046 4.5430057e-13 0)
(0.039968046 4.9278546e-13 0)
(0.039968046 4.6395467e-13 0)
(0.039968046 5.2148975e-13 0)
(0.039968046 4.9062234e-13 0)
(0.039968046 5.4165011e-13 0)
(0.039968046 4.820263e-13 0)
(0.039968046 5.2259396e-13 0)
(0.039968046 5.1002588e-13 0)
(0.039968046 6.4102466e-13 0)
(0.039968046 7.3348291e-13 0)
(0.039968046 8.0914447e-13 0)
(0.039968046 6.9734658e-13 0)
(0.039968046 4.9568061e-13 0)
(0.039968046 1.8010848e-13 0)
(0.039968046 -8.4399849e-14 0)
(0.039968046 -3.0550085e-13 0)
(0.039968046 -4.2943416e-13 0)
(0.039968046 -4.961078e-13 0)
(0.039968046 -5.2244538e-13 0)
(0.039968046 -5.3841498e-13 0)
(0.039968046 -5.5653432e-13 0)
(0.039968046 -5.7700242e-13 0)
(0.039968046 -5.9814964e-13 0)
(0.039968046 -6.2061005e-13 0)
(0.039968046 -6.2092846e-13 0)
(0.039968046 -6.1298912e-13 0)
(0.039968046 -5.8935695e-13 0)
(0.039968046 -6.2355544e-13 0)
(0.039968046 -6.7412705e-13 0)
(0.039968046 -7.5889779e-13 0)
(0.039968046 -7.1336459e-13 0)
(0.039968046 -6.0355696e-13 0)
(0.039968046 -3.1288498e-13 0)
(0.039968046 -8.5946918e-15 0)
(0.039968046 3.4457124e-13 0)
(0.039968046 5.6315374e-13 0)
(0.039968046 7.1481957e-13 0)
(0.039968046 6.1149067e-13 0)
(0.039968046 3.8129422e-13 0)
(0.039968046 -1.3366244e-14 0)
(0.039968046 -2.7888544e-13 0)
(0.039968046 -4.3437709e-13 0)
(0.039968046 -3.2413164e-13 0)
(0.039968046 -9.6042134e-14 0)
(0.039968046 2.1036817e-13 0)
(0.039968046 4.1940843e-13 0)
(0.039968046 5.5922324e-13 0)
(0.039968046 5.8957543e-13 0)
(0.039968046 6.2830188e-13 0)
(0.039968046 6.6830279e-13 0)
(0.039968046 7.0482111e-13 0)
(0.039968046 6.5061592e-13 0)
(0.039968046 4.7972738e-13 0)
(0.039968046 2.1571563e-13 0)
(0.039968046 -5.8800218e-14 0)
(0.039968046 -2.8045882e-13 0)
(0.039968046 -4.3825303e-13 0)
(0.039968046 -5.1077738e-13 0)
(0.039968046 -5.4655138e-13 0)
(0.039968046 -5.3272524e-13 0)
(0.039968046 -5.1315084e-13 0)
(0.039968046 -4.8937764e-13 0)
(0.039968046 -5.3275958e-13 0)
(0.039968046 -6.0000285e-13 0)
(0.039968046 -6.5426969e-13 0)
(0.039968046 -5.9497063e-13 0)
(0.039968046 -4.1270318e-13 0)
(0.039968046 -1.4823878e-13 0)
(0.039968046 1.1806973e-13 0)
(0.039968046 3.321982e-13 0)
(0.039968046 4.732466e-13 0)
(0.039968046 5.325038e-13 0)
(0.039968046 5.5772766e-13 0)
(0.039968046 5.4120633e-13 0)
(0.039968046 5.2312972e-13 0)
(0.039968046 4.7379942e-13 0)
(0.039968046 4.8000989e-13 0)
(0.039968046 5.1802043e-13 0)
(0.039968046 6.3006269e-13 0)
(0.039968046 6.4988799e-13 0)
(0.039968046 5.6683709e-13 0)
(0.039968046 2.7078876e-13 0)
(0.039968046 -1.9339152e-14 0)
(0.039968046 -2.5347456e-13 0)
(0.039968046 -2.6479911e-13 0)
(0.039968046 -1.3753109e-13 0)
(0.039968046 1.0196445e-13 0)
(0.039968046 3.4013759e-13 0)
(0.039968046 5.2293386e-13 0)
(0.039968046 6.4908832e-13 0)
(0.039968046 6.6954975e-13 0)
(0.039968046 6.7645134e-13 0)
(0.039968046 6.1441921e-13 0)
(0.039968046 6.2049768e-13 0)
(0.039968046 5.7490907e-13 0)
(0.039968046 6.1910618e-13 0)
(0.039968046 5.8088838e-13 0)
(0.039968046 6.2833033e-13 0)
(0.039968046 5.7142737e-13 0)
(0.039968046 6.0197788e-13 0)
(0.039968046 5.4544618e-13 0)
(0.039968046 6.0718127e-13 0)
(0.039968046 5.5492731e-13 0)
(0.039968046 5.5170348e-13 0)
(0.039968046 4.5860193e-13 0)
(0.039968046 5.8855637e-13 0)
(0.039968046 6.5185253e-13 0)
(0.039968046 6.0354354e-13 0)
(0.039968046 2.0050322e-13 0)
(0.36732383 0.14062829 0)
(0.29754389 0.025079372 0)
(0.1860793 0.0083694501 0)
(0.16132807 0.0041218635 0)
(0.13901859 0.001937569 0)
(0.13040448 0.0011770129 0)
(0.12396461 0.00061112034 0)
(0.12095998 0.00037191563 0)
(0.1189454 0.00019726764 0)
(0.11794826 0.0001156466 0)
(0.11733081 6.026683e-05 0)
(0.11702581 3.342196e-05 0)
(0.11685066 1.6516243e-05 0)
(0.11676842 8.3953513e-06 0)
(0.1167257 3.664252e-06 0)
(0.11670834 1.5207842e-06 0)
(0.1167012 3.9891986e-07 0)
(0.11669986 -2.8683794e-08 0)
(0.1167004 -1.9951843e-07 0)
(0.11670175 -2.1622512e-07 0)
(0.11670304 -1.9052156e-07 0)
(0.11670415 -1.4612277e-07 0)
(0.11670497 -1.0640877e-07 0)
(0.11670557 -7.3285115e-08 0)
(0.11670597 -4.9126033e-08 0)
(0.11670624 -3.1878038e-08 0)
(0.11670642 -2.02942e-08 0)
(0.11670653 -1.2619122e-08 0)
(0.11670659 -7.7165009e-09 0)
(0.11670664 -4.6221328e-09 0)
(0.11670666 -2.7225841e-09 0)
(0.11670667 -1.5715221e-09 0)
(0.11670668 -8.9068752e-10 0)
(0.11670669 -4.9272973e-10 0)
(0.11670669 -2.6504858e-10 0)
(0.11670669 -1.3724612e-10 0)
(0.11670669 -6.7287423e-11 0)
(0.11670669 -3.1337152e-11 0)
(0.11670669 -1.2407033e-11 0)
(0.11670669 -3.5687773e-12 0)
(0.11670669 1.2437315e-12 0)
(0.11670669 2.4462128e-12 0)
(0.11670669 3.1607964e-12 0)
(0.11670669 1.7887488e-12 0)
(0.11670669 1.0042069e-12 0)
(0.11670669 -1.577602e-13 0)
(0.11670669 -1.1458575e-13 0)
(0.11670669 7.4384276e-15 0)
(0.11670669 1.0165497e-12 0)
(0.11670669 1.1267936e-12 0)
(0.11670669 1.5270159e-12 0)
(0.11670669 1.1057025e-12 0)
(0.11670669 8.6051148e-13 0)
(0.11670669 4.5318434e-14 0)
(0.11670669 -4.7726766e-13 0)
(0.11670669 -1.2195243e-12 0)
(0.11670669 -1.5971521e-12 0)
(0.11670669 -1.8763803e-12 0)
(0.11670669 -1.6731129e-12 0)
(0.11670669 -1.5288232e-12 0)
(0.11670669 -1.3253942e-12 0)
(0.11670669 -1.2991047e-12 0)
(0.11670669 -1.3080519e-12 0)
(0.11670669 -1.4157259e-12 0)
(0.11670669 -1.3781334e-12 0)
(0.11670669 -1.450174e-12 0)
(0.11670669 -1.3392347e-12 0)
(0.11670669 -1.2492409e-12 0)
(0.11670669 -1.1090005e-12 0)
(0.11670669 -1.0715725e-12 0)
(0.11670669 -9.6086182e-13 0)
(0.11670669 -1.1226511e-12 0)
(0.11670669 -1.0930564e-12 0)
(0.11670669 -1.2005508e-12 0)
(0.11670669 -1.094494e-12 0)
(0.11670669 -1.1596192e-12 0)
(0.11670669 -1.0507015e-12 0)
(0.11670669 -1.1813079e-12 0)
(0.11670669 -1.0987092e-12 0)
(0.11670669 -1.2113675e-12 0)
(0.11670669 -1.0283048e-12 0)
(0.11670669 -1.1106655e-12 0)
(0.11670669 -1.0467046e-12 0)
(0.11670669 -1.300992e-12 0)
(0.11670669 -1.2679266e-12 0)
(0.11670669 -1.225875e-12 0)
(0.11670669 -7.0464193e-13 0)
(0.11670669 -2.2184065e-13 0)
(0.11670669 4.4560035e-13 0)
(0.11670669 8.0782459e-13 0)
(0.11670669 1.1174829e-12 0)
(0.11670669 1.1710765e-12 0)
(0.11670669 1.195669e-12 0)
(0.11670669 1.1101159e-12 0)
(0.11670669 1.0881069e-12 0)
(0.11670669 1.0390975e-12 0)
(0.11670669 1.0389784e-12 0)
(0.11670669 1.0200966e-12 0)
(0.11670669 1.0126108e-12 0)
(0.11670669 9.750586e-13 0)
(0.11670669 9.0364057e-13 0)
(0.11670669 9.0164934e-13 0)
(0.11670669 9.1931427e-13 0)
(0.11670669 1.1014496e-12 0)
(0.11670669 1.0086841e-12 0)
(0.11670669 8.0082191e-13 0)
(0.11670669 2.4068541e-14 0)
(0.11670669 -4.1366159e-13 0)
(0.11670669 -9.5974774e-13 0)
(0.11670669 -6.6640484e-13 0)
(0.11670669 -3.6417839e-13 0)
(0.11670669 3.8861067e-13 0)
(0.11670669 8.1885256e-13 0)
(0.11670669 1.2502847e-12 0)
(0.11670669 1.1505615e-12 0)
(0.11670669 1.2834274e-12 0)
(0.11670669 1.2605299e-12 0)
(0.11670669 1.49122e-12 0)
(0.11670669 1.3462925e-12 0)
(0.11670669 9.9703738e-13 0)
(0.11670669 1.5749441e-13 0)
(0.11670669 -4.5707455e-13 0)
(0.11670669 -8.7740331e-13 0)
(0.11670669 -6.6218651e-13 0)
(0.11670669 -2.8727107e-13 0)
(0.11670669 3.1559495e-13 0)
(0.11670669 6.5993896e-13 0)
(0.11670669 1.0666495e-12 0)
(0.11670669 1.2073048e-12 0)
(0.11670669 1.4490648e-12 0)
(0.11670669 1.4673523e-12 0)
(0.11670669 1.4393921e-12 0)
(0.11670669 1.0558341e-12 0)
(0.11670669 5.9261181e-13 0)
(0.11670669 -2.5389575e-14 0)
(0.11670669 -4.9440698e-13 0)
(0.11670669 -8.6969002e-13 0)
(0.11670669 -1.0700093e-12 0)
(0.11670669 -1.1484759e-12 0)
(0.11670669 -1.147258e-12 0)
(0.11670669 -1.0982179e-12 0)
(0.11670669 -1.0906543e-12 0)
(0.11670669 -1.0529682e-12 0)
(0.11670669 -1.0856589e-12 0)
(0.11670669 -1.0661659e-12 0)
(0.11670669 -1.1316113e-12 0)
(0.11670669 -1.0930707e-12 0)
(0.11670669 -1.1101886e-12 0)
(0.11670669 -1.0530758e-12 0)
(0.11670669 -1.173898e-12 0)
(0.11670669 -1.2608736e-12 0)
(0.11670669 -1.3433819e-12 0)
(0.11670669 -1.070041e-12 0)
(0.11670669 -6.5453675e-13 0)
(0.11670669 3.1245791e-14 0)
(0.11670669 5.2510437e-13 0)
(0.11670669 1.062521e-12 0)
(0.11670669 1.2864774e-12 0)
(0.11670669 1.5213587e-12 0)
(0.11670669 1.4254986e-12 0)
(0.11670669 1.4056301e-12 0)
(0.11670669 1.1964777e-12 0)
(0.11670669 1.1417111e-12 0)
(0.11670669 1.0304822e-12 0)
(0.11670669 1.1399522e-12 0)
(0.11670669 1.1309472e-12 0)
(0.11670669 1.2019625e-12 0)
(0.11670669 1.1778893e-12 0)
(0.11670669 1.2142758e-12 0)
(0.11670669 1.1810199e-12 0)
(0.11670669 1.2025905e-12 0)
(0.11670669 1.1741378e-12 0)
(0.11670669 1.1906606e-12 0)
(0.11670669 1.1692039e-12 0)
(0.11670669 1.188642e-12 0)
(0.11670669 1.1759814e-12 0)
(0.11670669 1.1926065e-12 0)
(0.11670669 1.1814384e-12 0)
(0.11670669 1.1817706e-12 0)
(0.11670669 1.1656897e-12 0)
(0.11670669 1.1342003e-12 0)
(0.11670669 1.1081362e-12 0)
(0.11670669 1.0547822e-12 0)
(0.11670669 1.0556157e-12 0)
(0.11670669 1.0202355e-12 0)
(0.11670669 1.0420534e-12 0)
(0.11670669 9.8665544e-13 0)
(0.11670669 1.0239513e-12 0)
(0.11670669 9.7052047e-13 0)
(0.11670669 1.0427881e-12 0)
(0.11670669 9.7377282e-13 0)
(0.11670669 1.0639513e-12 0)
(0.11670669 9.9449154e-13 0)
(0.11670669 1.1242919e-12 0)
(0.11670669 1.034572e-12 0)
(0.11670669 1.1356886e-12 0)
(0.11670669 9.6385157e-13 0)
(0.11670669 1.0546232e-12 0)
(0.11670669 1.0253098e-12 0)
(0.11670669 1.3380308e-12 0)
(0.11670669 1.5301906e-12 0)
(0.11670669 1.6657046e-12 0)
(0.11670669 1.3527157e-12 0)
(0.11670669 8.9224897e-13 0)
(0.11670669 2.1265999e-13 0)
(0.11670669 -2.9870981e-13 0)
(0.11670669 -7.4652219e-13 0)
(0.11670669 -9.8643779e-13 0)
(0.11670669 -1.1379244e-12 0)
(0.11670669 -1.1864606e-12 0)
(0.11670669 -1.2121424e-12 0)
(0.11670669 -1.2315648e-12 0)
(0.11670669 -1.2600459e-12 0)
(0.11670669 -1.2928336e-12 0)
(0.11670669 -1.3337552e-12 0)
(0.11670669 -1.3202632e-12 0)
(0.11670669 -1.2985719e-12 0)
(0.11670669 -1.2549409e-12 0)
(0.11670669 -1.3553796e-12 0)
(0.11670669 -1.4687447e-12 0)
(0.11670669 -1.6282654e-12 0)
(0.11670669 -1.4599189e-12 0)
(0.11670669 -1.1669563e-12 0)
(0.11670669 -5.1008406e-13 0)
(0.11670669 1.4690456e-13 0)
(0.11670669 8.9638771e-13 0)
(0.11670669 1.3209922e-12 0)
(0.11670669 1.5821482e-12 0)
(0.11670669 1.2463906e-12 0)
(0.11670669 7.077758e-13 0)
(0.11670669 -1.385507e-13 0)
(0.11670669 -6.3297888e-13 0)
(0.11670669 -8.7010892e-13 0)
(0.11670669 -5.8045368e-13 0)
(0.11670669 -8.310832e-14 0)
(0.11670669 5.2857781e-13 0)
(0.11670669 9.243323e-13 0)
(0.11670669 1.2177714e-12 0)
(0.11670669 1.3024128e-12 0)
(0.11670669 1.4188622e-12 0)
(0.11670669 1.5015574e-12 0)
(0.11670669 1.529448e-12 0)
(0.11670669 1.3226186e-12 0)
(0.11670669 8.958045e-13 0)
(0.11670669 3.0845063e-13 0)
(0.11670669 -2.4974257e-13 0)
(0.11670669 -6.881555e-13 0)
(0.11670669 -1.0125138e-12 0)
(0.11670669 -1.1673239e-12 0)
(0.11670669 -1.24269e-12 0)
(0.11670669 -1.1949855e-12 0)
(0.11670669 -1.1374079e-12 0)
(0.11670669 -1.0889054e-12 0)
(0.11670669 -1.1944503e-12 0)
(0.11670669 -1.3364222e-12 0)
(0.11670669 -1.4036069e-12 0)
(0.11670669 -1.201964e-12 0)
(0.11670669 -7.4831897e-13 0)
(0.11670669 -1.6800619e-13 0)
(0.11670669 3.763684e-13 0)
(0.11670669 8.0697643e-13 0)
(0.11670669 1.0943668e-12 0)
(0.11670669 1.2314364e-12 0)
(0.11670669 1.2916174e-12 0)
(0.11670669 1.2495647e-12 0)
(0.11670669 1.1879618e-12 0)
(0.11670669 1.0624821e-12 0)
(0.11670669 1.085141e-12 0)
(0.11670669 1.1888647e-12 0)
(0.11670669 1.4274654e-12 0)
(0.11670669 1.4028425e-12 0)
(0.11670669 1.1228023e-12 0)
(0.11670669 4.1502222e-13 0)
(0.11670669 -1.5416859e-13 0)
(0.11670669 -5.4357987e-13 0)
(0.11670669 -4.6134716e-13 0)
(0.11670669 -1.5248367e-13 0)
(0.11670669 3.1888045e-13 0)
(0.11670669 7.7545651e-13 0)
(0.11670669 1.1367964e-12 0)
(0.11670669 1.4107153e-12 0)
(0.11670669 1.4597359e-12 0)
(0.11670669 1.4765671e-12 0)
(0.11670669 1.3290169e-12 0)
(0.11670669 1.3387974e-12 0)
(0.11670669 1.2249088e-12 0)
(0.11670669 1.3256195e-12 0)
(0.11670669 1.2362124e-12 0)
(0.11670669 1.347446e-12 0)
(0.11670669 1.2194842e-12 0)
(0.11670669 1.2969385e-12 0)
(0.11670669 1.1791813e-12 0)
(0.11670669 1.3290733e-12 0)
(0.11670669 1.1989991e-12 0)
(0.11670669 1.1820919e-12 0)
(0.11670669 1.003907e-12 0)
(0.11670669 1.3575292e-12 0)
(0.11670669 1.4528811e-12 0)
(0.11670669 1.197276e-12 0)
(0.11670669 2.9918368e-13 0)
(0.50390834 0.19019021 0)
(0.43847039 0.050431488 0)
(0.29767008 0.022055297 0)
(0.25944374 0.010780083 0)
(0.22598939 0.0055621241 0)
(0.21213187 0.0032307841 0)
(0.20205719 0.001773278 0)
(0.19716897 0.0010457317 0)
(0.19394744 0.00057679433 0)
(0.19230772 0.00033133816 0)
(0.19130242 0.00017833579 0)
(0.19079327 9.7733179e-05 0)
(0.19050201 4.9927868e-05 0)
(0.1903612 2.53293e-05 0)
(0.19028763 1.1620903e-05 0)
(0.19025609 4.968518e-06 0)
(0.1902425 1.5955253e-06 0)
(0.19023894 1.7256499e-07 0)
(0.19023899 -4.0051305e-07 0)
(0.19024063 -5.2297112e-07 0)
(0.19024241 -4.8522444e-07 0)
(0.19024402 -3.8497666e-07 0)
(0.19024524 -2.8488178e-07 0)
(0.19024615 -1.9923012e-07 0)
(0.19024677 -1.3476024e-07 0)
(0.19024719 -8.8292134e-08 0)
(0.19024746 -5.6577316e-08 0)
(0.19024763 -3.5436255e-08 0)
(0.19024774 -2.1792806e-08 0)
(0.1902478 -1.3140657e-08 0)
(0.19024784 -7.7856257e-09 0)
(0.19024787 -4.5242497e-09 0)
(0.19024788 -2.5798439e-09 0)
(0.19024789 -1.4381685e-09 0)
(0.19024789 -7.8104248e-10 0)
(0.19024789 -4.1023843e-10 0)
(0.1902479 -2.0589071e-10 0)
(0.1902479 -9.8134095e-11 0)
(0.1902479 -4.1675938e-11 0)
(0.1902479 -1.426476e-11 0)
(0.1902479 -4.8617511e-13 0)
(0.1902479 4.1285186e-12 0)
(0.1902479 5.9849991e-12 0)
(0.1902479 4.0916124e-12 0)
(0.1902479 2.6920242e-12 0)
(0.1902479 8.2966507e-13 0)
(0.1902479 6.5809655e-13 0)
(0.1902479 6.6317772e-13 0)
(0.1902479 1.8991895e-12 0)
(0.1902479 1.9174849e-12 0)
(0.1902479 2.3631878e-12 0)
(0.1902479 1.7001331e-12 0)
(0.1902479 1.2900013e-12 0)
(0.1902479 1.5504015e-13 0)
(0.1902479 -5.708617e-13 0)
(0.1902479 -1.5883492e-12 0)
(0.1902479 -2.1453137e-12 0)
(0.1902479 -2.5975241e-12 0)
(0.1902479 -2.3460928e-12 0)
(0.1902479 -2.1740268e-12 0)
(0.1902479 -1.853668e-12 0)
(0.1902479 -1.8213818e-12 0)
(0.1902479 -1.8243814e-12 0)
(0.1902479 -1.9994675e-12 0)
(0.1902479 -1.9447614e-12 0)
(0.1902479 -2.0468522e-12 0)
(0.1902479 -1.8773682e-12 0)
(0.1902479 -1.7491087e-12 0)
(0.1902479 -1.5317608e-12 0)
(0.1902479 -1.4957068e-12 0)
(0.1902479 -1.3227754e-12 0)
(0.1902479 -1.5784545e-12 0)
(0.1902479 -1.5182295e-12 0)
(0.1902479 -1.6898039e-12 0)
(0.1902479 -1.5168188e-12 0)
(0.1902479 -1.6207724e-12 0)
(0.1902479 -1.4467449e-12 0)
(0.1902479 -1.6473979e-12 0)
(0.1902479 -1.5185884e-12 0)
(0.1902479 -1.6935356e-12 0)
(0.1902479 -1.4223189e-12 0)
(0.1902479 -1.5561287e-12 0)
(0.1902479 -1.4612312e-12 0)
(0.1902479 -1.8349498e-12 0)
(0.1902479 -1.7675602e-12 0)
(0.1902479 -1.6927817e-12 0)
(0.1902479 -9.2293869e-13 0)
(0.1902479 -2.3528144e-13 0)
(0.1902479 7.1095308e-13 0)
(0.1902479 1.1910891e-12 0)
(0.1902479 1.6265451e-12 0)
(0.1902479 1.6822779e-12 0)
(0.1902479 1.72074e-12 0)
(0.1902479 1.5873823e-12 0)
(0.1902479 1.5615913e-12 0)
(0.1902479 1.4799741e-12 0)
(0.1902479 1.4839317e-12 0)
(0.1902479 1.4473794e-12 0)
(0.1902479 1.446925e-12 0)
(0.1902479 1.3850347e-12 0)
(0.1902479 1.2952385e-12 0)
(0.1902479 1.2858611e-12 0)
(0.1902479 1.3199617e-12 0)
(0.1902479 1.549615e-12 0)
(0.1902479 1.4074383e-12 0)
(0.1902479 1.0637323e-12 0)
(0.1902479 -4.1890909e-14 0)
(0.1902479 -6.8648072e-13 0)
(0.1902479 -1.4282241e-12 0)
(0.1902479 -1.0081967e-12 0)
(0.1902479 -5.5553805e-13 0)
(0.1902479 4.9021869e-13 0)
(0.1902479 1.1060876e-12 0)
(0.1902479 1.7158293e-12 0)
(0.1902479 1.6153188e-12 0)
(0.1902479 1.8065097e-12 0)
(0.1902479 1.7930321e-12 0)
(0.1902479 2.0951503e-12 0)
(0.1902479 1.8686805e-12 0)
(0.1902479 1.3319428e-12 0)
(0.1902479 1.3433133e-13 0)
(0.1902479 -7.1165307e-13 0)
(0.1902479 -1.2537525e-12 0)
(0.1902479 -9.049134e-13 0)
(0.1902479 -3.5550659e-13 0)
(0.1902479 4.7796452e-13 0)
(0.1902479 9.4773478e-13 0)
(0.1902479 1.5117404e-12 0)
(0.1902479 1.7224125e-12 0)
(0.1902479 2.0703756e-12 0)
(0.1902479 2.0931501e-12 0)
(0.1902479 2.0264758e-12 0)
(0.1902479 1.4497104e-12 0)
(0.1902479 7.7417014e-13 0)
(0.1902479 -1.0849705e-13 0)
(0.1902479 -7.5297973e-13 0)
(0.1902479 -1.2776529e-12 0)
(0.1902479 -1.5492532e-12 0)
(0.1902479 -1.6621843e-12 0)
(0.1902479 -1.6506354e-12 0)
(0.1902479 -1.5813269e-12 0)
(0.1902479 -1.5577956e-12 0)
(0.1902479 -1.5059608e-12 0)
(0.1902479 -1.5420566e-12 0)
(0.1902479 -1.5213678e-12 0)
(0.1902479 -1.6076917e-12 0)
(0.1902479 -1.5605803e-12 0)
(0.1902479 -1.578365e-12 0)
(0.1902479 -1.5079752e-12 0)
(0.1902479 -1.677907e-12 0)
(0.1902479 -1.8071285e-12 0)
(0.1902479 -1.8941865e-12 0)
(0.1902479 -1.4797154e-12 0)
(0.1902479 -8.5345757e-13 0)
(0.1902479 1.2247935e-13 0)
(0.1902479 8.1744818e-13 0)
(0.1902479 1.5657292e-12 0)
(0.1902479 1.8903031e-12 0)
(0.1902479 2.2259773e-12 0)
(0.1902479 2.1061137e-12 0)
(0.1902479 2.0749855e-12 0)
(0.1902479 1.7791839e-12 0)
(0.1902479 1.6895861e-12 0)
(0.1902479 1.5182972e-12 0)
(0.1902479 1.6593183e-12 0)
(0.1902479 1.6422673e-12 0)
(0.1902479 1.7441543e-12 0)
(0.1902479 1.7090988e-12 0)
(0.1902479 1.7627674e-12 0)
(0.1902479 1.7120597e-12 0)
(0.1902479 1.7446231e-12 0)
(0.1902479 1.6990332e-12 0)
(0.1902479 1.7252797e-12 0)
(0.1902479 1.6887998e-12 0)
(0.1902479 1.7214193e-12 0)
(0.1902479 1.6974338e-12 0)
(0.1902479 1.7277341e-12 0)
(0.1902479 1.7048116e-12 0)
(0.1902479 1.7124322e-12 0)
(0.1902479 1.6810755e-12 0)
(0.1902479 1.6414102e-12 0)
(0.1902479 1.5937281e-12 0)
(0.1902479 1.5269459e-12 0)
(0.1902479 1.5184797e-12 0)
(0.1902479 1.4805811e-12 0)
(0.1902479 1.5002437e-12 0)
(0.1902479 1.4353231e-12 0)
(0.1902479 1.4780612e-12 0)
(0.1902479 1.4185949e-12 0)
(0.1902479 1.5114434e-12 0)
(0.1902479 1.4283165e-12 0)
(0.1902479 1.5438043e-12 0)
(0.1902479 1.4566817e-12 0)
(0.1902479 1.6252046e-12 0)
(0.1902479 1.500314e-12 0)
(0.1902479 1.6164779e-12 0)
(0.1902479 1.3586382e-12 0)
(0.1902479 1.4600282e-12 0)
(0.1902479 1.4089659e-12 0)
(0.1902479 1.8453566e-12 0)
(0.1902479 2.1076883e-12 0)
(0.1902479 2.2828087e-12 0)
(0.1902479 1.8060857e-12 0)
(0.1902479 1.1432905e-12 0)
(0.1902479 1.7387781e-13 0)
(0.1902479 -5.1771644e-13 0)
(0.1902479 -1.1437755e-12 0)
(0.1902479 -1.4633214e-12 0)
(0.1902479 -1.6822021e-12 0)
(0.1902479 -1.7359577e-12 0)
(0.1902479 -1.7674459e-12 0)
(0.1902479 -1.7737611e-12 0)
(0.1902479 -1.8008926e-12 0)
(0.1902479 -1.8264485e-12 0)
(0.1902479 -1.8709406e-12 0)
(0.1902479 -1.8368213e-12 0)
(0.1902479 -1.7955614e-12 0)
(0.1902479 -1.731502e-12 0)
(0.1902479 -1.8746281e-12 0)
(0.1902479 -2.0406031e-12 0)
(0.1902479 -2.247168e-12 0)
(0.1902479 -1.9922827e-12 0)
(0.1902479 -1.5480532e-12 0)
(0.1902479 -6.2914469e-13 0)
(0.1902479 2.9605086e-13 0)
(0.1902479 1.3139052e-12 0)
(0.1902479 1.8974739e-12 0)
(0.1902479 2.207042e-12 0)
(0.1902479 1.6975537e-12 0)
(0.1902479 8.8755078e-13 0)
(0.1902479 -3.0298217e-13 0)
(0.1902479 -9.8507178e-13 0)
(0.1902479 -1.2726591e-12 0)
(0.1902479 -8.3892816e-13 0)
(0.1902479 -1.136197e-13 0)
(0.1902479 7.317528e-13 0)
(0.1902479 1.2900501e-12 0)
(0.1902479 1.6966024e-12 0)
(0.1902479 1.8342302e-12 0)
(0.1902479 2.0040345e-12 0)
(0.1902479 2.1246929e-12 0)
(0.1902479 2.1367504e-12 0)
(0.1902479 1.8093737e-12 0)
(0.1902479 1.1735608e-12 0)
(0.1902479 3.2911704e-13 0)
(0.1902479 -4.5069015e-13 0)
(0.1902479 -1.0655502e-12 0)
(0.1902479 -1.5111203e-12 0)
(0.1902479 -1.731596e-12 0)
(0.1902479 -1.8216168e-12 0)
(0.1902479 -1.7419775e-12 0)
(0.1902479 -1.6368406e-12 0)
(0.1902479 -1.5661692e-12 0)
(0.1902479 -1.7093771e-12 0)
(0.1902479 -1.9125062e-12 0)
(0.1902479 -1.9840749e-12 0)
(0.1902479 -1.6698551e-12 0)
(0.1902479 -9.9685034e-13 0)
(0.1902479 -1.660012e-13 0)
(0.1902479 5.9734371e-13 0)
(0.1902479 1.1962196e-12 0)
(0.1902479 1.599241e-12 0)
(0.1902479 1.7971423e-12 0)
(0.1902479 1.8838641e-12 0)
(0.1902479 1.8232867e-12 0)
(0.1902479 1.724573e-12 0)
(0.1902479 1.5426033e-12 0)
(0.1902479 1.5693664e-12 0)
(0.1902479 1.7284867e-12 0)
(0.1902479 2.0530776e-12 0)
(0.1902479 1.9946201e-12 0)
(0.1902479 1.5318999e-12 0)
(0.1902479 4.9454275e-13 0)
(0.1902479 -3.2479861e-13 0)
(0.1902479 -8.4106084e-13 0)
(0.1902479 -6.9540769e-13 0)
(0.1902479 -2.3201452e-13 0)
(0.1902479 4.2271574e-13 0)
(0.1902479 1.0608909e-12 0)
(0.1902479 1.5694494e-12 0)
(0.1902479 1.9696106e-12 0)
(0.1902479 2.0528118e-12 0)
(0.1902479 2.0790603e-12 0)
(0.1902479 1.8777965e-12 0)
(0.1902479 1.8832795e-12 0)
(0.1902479 1.7319329e-12 0)
(0.1902479 1.8644392e-12 0)
(0.1902479 1.7513958e-12 0)
(0.1902479 1.8991877e-12 0)
(0.1902479 1.7339283e-12 0)
(0.1902479 1.8337141e-12 0)
(0.1902479 1.6860473e-12 0)
(0.1902479 1.8892874e-12 0)
(0.1902479 1.7189279e-12 0)
(0.1902479 1.6767352e-12 0)
(0.1902479 1.4477338e-12 0)
(0.1902479 1.9536719e-12 0)
(0.1902479 2.0993206e-12 0)
(0.1902479 1.6719323e-12 0)
(0.1902479 3.9024435e-13 0)
(0.59346672 0.21467329 0)
(0.54593347 0.075998391 0)
(0.39702192 0.039312281 0)
(0.34953974 0.019720543 0)
(0.30792187 0.010726723 0)
(0.28963523 0.0061583646 0)
(0.27651264 0.0034761734 0)
(0.26994405 0.0020290971 0)
(0.26565503 0.0011409874 0)
(0.26342423 0.00065140802 0)
(0.26206335 0.00035633714 0)
(0.26136077 0.0001948786 0)
(0.26095907 0.0001012988 0)
(0.26076048 5.1594959e-05 0)
(0.260656 2.431827e-05 0)
(0.26060945 1.0644956e-05 0)
(0.26058866 3.7608245e-06 0)
(0.26058217 7.1148242e-07 0)
(0.26058122 -5.4284458e-07 0)
(0.26058278 -8.8438837e-07 0)
(0.2605848 -8.6464702e-07 0)
(0.26058673 -7.0557923e-07 0)
(0.26058825 -5.2973343e-07 0)
(0.26058939 -3.7485128e-07 0)
(0.26059018 -2.5549146e-07 0)
(0.26059072 -1.6859568e-07 0)
(0.26059108 -1.0860968e-07 0)
(0.2605913 -6.8388277e-08 0)
(0.26059144 -4.2245667e-08 0)
(0.26059153 -2.5595538e-08 0)
(0.26059158 -1.523245e-08 0)
(0.26059162 -8.893934e-09 0)
(0.26059163 -5.0945657e-09 0)
(0.26059165 -2.8550029e-09 0)
(0.26059165 -1.5605106e-09 0)
(0.26059165 -8.2700879e-10 0)
(0.26059166 -4.2054226e-10 0)
(0.26059166 -2.0313736e-10 0)
(0.26059166 -8.8984037e-11 0)
(0.26059166 -3.298869e-11 0)
(0.26059166 -5.8328307e-12 0)
(0.26059166 4.2504032e-12 0)
(0.26059166 8.2449779e-12 0)
(0.26059166 6.6930069e-12 0)
(0.26059166 5.1903391e-12 0)
(0.26059166 2.8171766e-12 0)
(0.26059166 2.1614123e-12 0)
(0.26059166 1.4887706e-12 0)
(0.26059166 2.2421352e-12 0)
(0.26059166 1.8306573e-12 0)
(0.26059166 2.0810328e-12 0)
(0.26059166 1.2663816e-12 0)
(0.26059166 9.5138548e-13 0)
(0.26059166 -2.8607385e-15 0)
(0.26059166 -4.4569214e-13 0)
(0.26059166 -1.2720339e-12 0)
(0.26059166 -1.7242781e-12 0)
(0.26059166 -2.1866863e-12 0)
(0.26059166 -1.9400441e-12 0)
(0.26059166 -1.7892494e-12 0)
(0.26059166 -1.4500442e-12 0)
(0.26059166 -1.3907629e-12 0)
(0.26059166 -1.369899e-12 0)
(0.26059166 -1.5735114e-12 0)
(0.26059166 -1.5210155e-12 0)
(0.26059166 -1.6342577e-12 0)
(0.26059166 -1.4348149e-12 0)
(0.26059166 -1.3159759e-12 0)
(0.26059166 -1.0961025e-12 0)
(0.26059166 -1.0917797e-12 0)
(0.26059166 -9.0558759e-13 0)
(0.26059166 -1.1661523e-12 0)
(0.26059166 -1.0791191e-12 0)
(0.26059166 -1.2514766e-12 0)
(0.26059166 -1.0555312e-12 0)
(0.26059166 -1.1608437e-12 0)
(0.26059166 -9.6008469e-13 0)
(0.26059166 -1.1618966e-12 0)
(0.26059166 -1.0061237e-12 0)
(0.26059166 -1.2001468e-12 0)
(0.26059166 -9.3569437e-13 0)
(0.26059166 -1.1235821e-12 0)
(0.26059166 -1.0199857e-12 0)
(0.26059166 -1.3636487e-12 0)
(0.26059166 -1.214962e-12 0)
(0.26059166 -1.1416952e-12 0)
(0.26059166 -4.5803875e-13 0)
(0.26059166 1.080517e-14 0)
(0.26059166 6.8785933e-13 0)
(0.26059166 9.387823e-13 0)
(0.26059166 1.236978e-12 0)
(0.26059166 1.2242263e-12 0)