/*--------------------------------*- C++ -*----------------------------------*\
| =========                 |                                                 |
| \\      /  F ield         | OpenFOAM: The Open Source CFD Toolbox           |
|  \\    /   O peration     | Version:  2206                                  |
|   \\  /    A nd           | Website:  www.openfoam.com                      |
|    \\/     M anipulation  |                                                 |
\*---------------------------------------------------------------------------*/
FoamFile
{
    version     2.0;
    format      ascii;
    arch        "LSB;label=32;scalar=64";
    class       surfaceScalarField;
    location    "15";
    object      phi;
}
// * * * * * * * * * * * * * * * * * * * * * * * * * * * * * * * * * * * * * //

dimensions      [0 3 -1 0 0 0 0];

oriented        oriented;

internalField   nonuniform List<scalar> 
29650
(
6.0867649e-05
0.00020579915
3.271817e-05
2.8149467e-05
2.4599021e-05
8.1191314e-06
2.0417848e-05
4.1811568e-06
1.8552178e-05
1.8656606e-06
1.73737e-05
1.1784711e-06
1.6781661e-05
5.9203139e-07
1.6412315e-05
3.6933577e-07
1.622082e-05
1.9148145e-07
1.6106686e-05
1.1412374e-07
1.6048258e-05
5.8420111e-08
1.6015474e-05
3.277899e-08
1.5999542e-05
1.5928772e-08
1.5991376e-05
8.1627664e-09
1.5987889e-05
3.4847902e-09
1.598644e-05
1.4472246e-09
1.598609e-05
3.4916972e-10
1.5986138e-05
-4.7869346e-11
1.5986349e-05
-2.1080032e-10
1.5986569e-05
-2.1950981e-10
1.5986762e-05
-1.9189296e-10
1.5986908e-05
-1.4581467e-10
1.5987014e-05
-1.0596914e-10
1.5987087e-05
-7.2751723e-11
1.5987136e-05
-4.8794909e-11
1.5987167e-05
-3.1656668e-11
1.5987187e-05
-2.0178985e-11
1.59872e-05
-1.2552556e-11
1.5987208e-05
-7.6871378e-12
1.5987212e-05
-4.6123465e-12
1.5987215e-05
-2.7219574e-12
1.5987216e-05
-1.5712352e-12
1.5987217e-05
-8.8761628e-13
1.5987218e-05
-4.8951587e-13
1.5987218e-05
-2.6462712e-13
1.5987218e-05
-1.3930191e-13
1.5987218e-05
-7.0562516e-14
1.5987218e-05
-3.2444862e-14
1.5987218e-05
-1.1942056e-14
1.5987218e-05
-1.5321391e-15
1.5987218e-05
2.6561721e-15
1.5987218e-05
3.7836346e-15
1.5987218e-05
3.6048454e-15
1.5987218e-05
2.8434884e-15
1.5987218e-05
2.6230784e-15
1.5987218e-05
2.6368143e-15
1.5987218e-05
2.9782011e-15
1.5987218e-05
2.6916561e-15
1.5987218e-05
2.540525e-15
1.5987218e-05
2.1887641e-15
1.5987218e-05
2.735084e-15
1.5987218e-05
3.1166844e-15
1.5987218e-05
4.139517e-15
1.5987218e-05
4.3658968e-15
1.5987218e-05
4.5227942e-15
1.5987218e-05
4.1899778e-15
1.5987218e-05
4.6048261e-15
1.5987218e-05
5.2952798e-15
1.5987218e-05
5.9943683e-15
1.5987218e-05
5.1004789e-15
1.5987218e-05
2.368686e-15
1.5987218e-05
-9.437864e-16
1.5987218e-05
-3.5578667e-15
1.5987218e-05
-5.3348319e-15
1.5987218e-05
-6.1092171e-15
1.5987218e-05
-6.3530412e-15
1.5987218e-05
-6.101873e-15
1.5987218e-05
-5.5613594e-15
1.5987218e-05
-4.7946035e-15
1.5987218e-05
-4.0644656e-15
1.5987218e-05
-3.7848487e-15
1.5987218e-05
-3.2567785e-15
1.5987218e-05
-3.4174073e-15
1.5987218e-05
-3.1523992e-15
1.5987218e-05
-3.542615e-15
1.5987218e-05
-3.2737017e-15
1.5987218e-05
-3.5829875e-15
1.5987218e-05
-3.1797386e-15
1.5987218e-05
-3.4805958e-15
1.5987218e-05
-3.115309e-15
1.5987218e-05
-3.4343362e-15
1.5987218e-05
-2.9941422e-15
1.5987218e-05
-3.1201681e-15
1.5987218e-05
-2.6781946e-15
1.5987218e-05
-3.2719065e-15
1.5987218e-05
-3.5750723e-15
1.5987218e-05
-4.5766432e-15
1.5987218e-05
-4.4216914e-15
1.5987218e-05
-3.7133066e-15
1.5987218e-05
-1.8035586e-15
1.5987218e-05
-9.8289235e-17
1.5987218e-05
1.5287944e-15
1.5987218e-05
2.1612291e-15
1.5987218e-05
2.9370496e-15
1.5987218e-05
3.1176055e-15
1.5987218e-05
3.5649458e-15
1.5987218e-05
3.6043057e-15
1.5987218e-05
3.7180952e-15
1.5987218e-05
3.2651653e-15
1.5987218e-05
2.798729e-15
1.5987218e-05
2.454958e-15
1.5987218e-05
2.4432434e-15
1.5987218e-05
3.0099386e-15
1.5987218e-05
3.9004992e-15
1.5987218e-05
4.9050412e-15
1.5987218e-05
5.5530055e-15
1.5987218e-05
6.3671976e-15
1.5987218e-05
6.3707638e-15
1.5987218e-05
6.9489308e-15
1.5987218e-05
6.1094676e-15
1.5987218e-05
5.7901549e-15
1.5987218e-05
3.8346929e-15
1.5987218e-05
3.0480448e-15
1.5987218e-05
1.7639868e-15
1.5987218e-05
2.3627952e-15
1.5987218e-05
2.1305164e-15
1.5987218e-05
2.9950766e-15
1.5987218e-05
2.6021217e-15
1.5987218e-05
3.3050466e-15
1.5987218e-05
2.718689e-15
1.5987218e-05
3.4463551e-15
1.5987218e-05
2.7162332e-15
1.5987218e-05
3.3714381e-15
1.5987218e-05
2.4565158e-15
1.5987218e-05
3.0592361e-15
1.5987218e-05
2.0010348e-15
1.5987218e-05
2.5565289e-15
1.5987218e-05
1.4957313e-15
1.5987218e-05
2.2620514e-15
1.5987218e-05
1.5348116e-15
1.5987218e-05
2.5011506e-15
1.5987218e-05
2.0232236e-15
1.5987218e-05
2.8411744e-15
1.5987218e-05
2.2064889e-15
1.5987218e-05
2.5737127e-15
1.5987218e-05
1.6614694e-15
1.5987218e-05
1.642298e-15
1.5987218e-05
7.356691e-16
1.5987218e-05
7.147943e-16
1.5987218e-05
1.796424e-16
1.5987218e-05
3.7829363e-16
1.5987218e-05
3.0084792e-16
1.5987218e-05
5.1638161e-16
1.5987218e-05
6.8115307e-16
1.5987218e-05
9.3323594e-16
1.5987218e-05
1.4555272e-15
1.5987218e-05
1.5898874e-15
1.5987218e-05
2.0545135e-15
1.5987218e-05
1.5786584e-15
1.5987218e-05
1.6976879e-15
1.5987218e-05
8.8842555e-16
1.5987218e-05
1.3365835e-15
1.5987218e-05
7.3999467e-16
1.5987218e-05
1.3286038e-15
1.5987218e-05
1.6092149e-16
1.5987218e-05
3.1022059e-16
1.5987218e-05
-1.941783e-15
1.5987218e-05
-2.3270401e-15
1.5987218e-05
-4.5185843e-15
1.5987218e-05
-3.8458141e-15
1.5987218e-05
-4.6669591e-15
1.5987218e-05
-3.0008038e-15
1.5987218e-05
-3.1711251e-15
1.5987218e-05
-2.1137657e-15
1.5987218e-05
-2.9878472e-15
1.5987218e-05
-1.1656374e-15
1.5987218e-05
-1.0176082e-15
1.5987218e-05
9.6851229e-16
1.5987218e-05
5.7921917e-16
1.5987218e-05
1.889934e-15
1.5987218e-05
1.0532817e-15
1.5987218e-05
2.1029081e-15
1.5987218e-05
1.1742619e-15
1.5987218e-05
2.094266e-15
1.5987218e-05
1.1696774e-15
1.5987218e-05
2.0631095e-15
1.5987218e-05
1.1511319e-15
1.5987218e-05
2.0437654e-15
1.5987218e-05
1.231737e-15
1.5987218e-05
2.1661345e-15
1.5987218e-05
1.5128929e-15
1.5987218e-05
2.4728617e-15
1.5987218e-05
1.999632e-15
1.5987218e-05
3.0349863e-15
1.5987218e-05
2.7200939e-15
1.5987218e-05
3.4577185e-15
1.5987218e-05
2.9680544e-15
1.5987218e-05
3.4072928e-15
1.5987218e-05
2.9597345e-15
1.5987218e-05
3.1407926e-15
1.5987218e-05
2.7230168e-15
1.5987218e-05
2.318381e-15
1.5987218e-05
1.3981807e-15
1.5987218e-05
7.3658468e-18
1.5987218e-05
-6.5736591e-16
1.5987218e-05
-1.2251074e-15
1.5987218e-05
-1.397329e-16
1.5987218e-05
2.5205655e-16
1.5987218e-05
1.8530617e-15
1.5987218e-05
1.5641613e-15
1.5987218e-05
1.9757849e-15
1.5987218e-05
1.0905944e-15
1.5987218e-05
1.410495e-15
1.5987218e-05
5.9757102e-16
1.5987218e-05
9.1100967e-16
1.5987218e-05
5.5082206e-16
1.5987218e-05
8.7569149e-16
1.5987218e-05
9.1280901e-16
1.5987218e-05
9.2709841e-16
1.5987218e-05
8.8936193e-16
1.5987218e-05
4.2929996e-16
1.5987218e-05
7.9480964e-16
1.5987218e-05
7.5940802e-16
1.5987218e-05
2.0625532e-15
1.5987218e-05
2.2136221e-15
1.5987218e-05
2.9674203e-15
1.5987218e-05
1.5646043e-15
1.5987218e-05
1.3494107e-15
1.5987218e-05
-9.877911e-16
1.5987218e-05
-1.54468e-15
1.5987218e-05
-3.8090329e-15
1.5987218e-05
-3.5601427e-15
1.5987218e-05
-4.0361079e-15
1.5987218e-05
-1.7458594e-15
1.5987218e-05
-2.2310433e-16
1.5987218e-05
1.9703439e-15
1.5987218e-05
2.2203817e-15
1.5987218e-05
1.5906704e-15
1.5987218e-05
-1.8335116e-16
1.5987218e-05
-1.914341e-15
1.5987218e-05
-1.8121973e-15
1.5987218e-05
-1.499121e-15
1.5987218e-05
2.0774011e-16
1.5987218e-05
-9.6019124e-17
1.5987218e-05
3.708728e-16
1.5987218e-05
-1.0195527e-15
1.5987218e-05
-6.3271396e-16
1.5987218e-05
-2.5844448e-15
1.5987218e-05
-2.3943643e-15
1.5987218e-05
-4.2157108e-15
1.5987218e-05
-3.0797398e-15
1.5987218e-05
-3.6878722e-15
1.5987218e-05
-9.2063255e-16
1.5987218e-05
-4.3505028e-16
1.5987218e-05
2.5090724e-15
1.5987218e-05
2.8026076e-15
1.5987218e-05
4.5581711e-15
1.5987218e-05
3.6612948e-15
1.5987218e-05
3.0144425e-15
1.5987218e-05
1.0710726e-15
1.5987218e-05
-1.9175092e-16
1.5987218e-05
-5.7671826e-16
1.5987218e-05
-5.5894392e-16
1.5987218e-05
6.571153e-16
1.5987218e-05
8.5486247e-16
1.5987218e-05
2.4449494e-15
1.5987218e-05
1.8027396e-15
1.5987218e-05
2.5788326e-15
1.5987218e-05
1.3870415e-15
1.5987218e-05
2.3416301e-15
1.5987218e-05
1.4398762e-15
1.5987218e-05
2.6785962e-15
1.5987218e-05
1.7128614e-15
1.5987218e-05
2.4580679e-15
1.5987218e-05
1.2551279e-15
1.5987218e-05
1.9780893e-15
1.5987218e-05
1.5452718e-15
1.5987218e-05
2.9244302e-15
1.5987218e-05
2.9198595e-15
1.5987218e-05
3.9028395e-15
1.5987218e-05
3.3692309e-15
1.5987218e-05
2.9211071e-15
1.5987218e-05
1.3354482e-15
1.5987218e-05
-3.4473962e-16
1.5987218e-05
-1.5820274e-15
1.5987218e-05
-2.6877686e-15
1.5987218e-05
-2.430412e-15
1.5987218e-05
-2.8335233e-15
1.5987218e-05
-1.8007502e-15
1.5987218e-05
-2.174784e-15
1.5987218e-05
-1.5994179e-15
1.5987218e-05
-2.9665287e-15
1.5987218e-05
-3.1947054e-15
1.5987218e-05
-4.2286067e-15
1.5987218e-05
-2.8859643e-15
1.5987218e-05
-2.1459554e-15
1.5987218e-05
8.0482984e-17
1.5987218e-05
6.7377432e-16
1.5987218e-05
1.8931894e-15
1.5987218e-05
1.7626374e-15
1.5987218e-05
2.3550762e-15
1.5987218e-05
1.9873414e-15
1.5987218e-05
2.4460247e-15
1.5987218e-05
2.0798173e-15
1.5987218e-05
2.1278503e-15
1.5987218e-05
1.1806399e-15
1.5987218e-05
1.6341357e-15
1.5987218e-05
2.2474034e-15
1.5987218e-05
3.0561359e-15
1.1794e-15
0.00014027132
0.00033219463
9.2549243e-05
7.5871532e-05
7.0338072e-05
3.0330285e-05
5.9620313e-05
1.48989e-05
5.4019642e-05
7.4663229e-06
5.0795343e-05
4.4027644e-06
4.901105e-05
2.3763184e-06
4.7964745e-05
1.4156296e-06
4.7384384e-05
7.718289e-07
4.7052233e-05
4.4626277e-07
4.6872682e-05
2.379637e-07
4.677453e-05
1.3092584e-07
4.6724187e-05
6.6269095e-08
4.6698685e-05
3.3661502e-08
4.6686924e-05
1.5242973e-08
4.6681892e-05
6.477645e-09
4.6680252e-05
1.9893432e-09
4.6680058e-05
1.4596453e-10
4.6680445e-05
-5.971953e-10
4.6680961e-05
-7.3564584e-10
4.6681443e-05
-6.7289139e-10
4.6681826e-05
-5.2878795e-10
4.668211e-05
-3.8977046e-10
4.6682309e-05
-2.7161832e-10
4.6682444e-05
-1.835138e-10
4.6682532e-05
-1.2008689e-10
4.6682589e-05
-7.6925874e-11
4.6682624e-05
-4.815044e-11
4.6682646e-05
-2.9609613e-11
4.6682659e-05
-1.7855677e-11
4.6682667e-05
-1.0582932e-11
4.6682672e-05
-6.1453658e-12
4.6682674e-05
-3.495469e-12
4.6682676e-05
-1.9436186e-12
4.6682676e-05
-1.0572284e-12
4.6682677e-05
-5.5900101e-13
4.6682677e-05
-2.8484754e-13
4.6682677e-05
-1.3496507e-13
4.6682677e-05
-5.5620293e-14
4.6682677e-05
-1.5662855e-14
4.6682677e-05
1.8510552e-15
4.6682677e-05
8.1759021e-15
4.6682677e-05
8.8571255e-15
4.6682677e-05
7.5274298e-15
4.6682677e-05
6.4804455e-15
4.6682677e-05
6.3098593e-15
4.6682677e-05
6.8246712e-15
4.6682677e-05
6.3096695e-15
4.6682677e-05
5.473495e-15
4.6682677e-05
4.7186538e-15
4.6682677e-05
5.3411597e-15
4.6682677e-05
6.1431459e-15
4.6682677e-05
8.1632068e-15
4.6682677e-05
8.9641288e-15
4.6682677e-05
9.2549243e-15
4.6682677e-05
8.6328028e-15
4.6682677e-05
9.2991672e-15
4.6682677e-05
1.0850901e-14
4.6682677e-05
1.2081729e-14
4.6682677e-05
1.0665106e-14
4.6682677e-05
5.1483789e-15
4.6682677e-05
-1.217388e-15
4.6682677e-05
-6.9692119e-15
4.6682677e-05
-1.0487206e-14
4.6682677e-05
-1.2226799e-14
4.6682677e-05
-1.2631841e-14
4.6682677e-05
-1.2104355e-14
4.6682677e-05
-1.0880585e-14
4.6682677e-05
-9.3300529e-15
4.6682677e-05
-8.0028791e-15
4.6682677e-05
-7.5235952e-15
4.6682677e-05
-6.5149001e-15
4.6682677e-05
-6.8119972e-15
4.6682677e-05
-6.3433581e-15
4.6682677e-05
-7.0574728e-15
4.6682677e-05
-6.5925529e-15
4.6682677e-05
-7.1231945e-15
4.6682677e-05
-6.4197093e-15
4.6682677e-05
-6.8918395e-15
4.6682677e-05
-6.3126902e-15
4.6682677e-05
-6.8427694e-15
4.6682677e-05
-6.1478692e-15
4.6682677e-05
-6.2900896e-15
4.6682677e-05
-5.4841192e-15
4.6682677e-05
-6.6023097e-15
4.6682677e-05
-7.1441878e-15
4.6682677e-05
-9.0881256e-15
4.6682677e-05
-8.9532746e-15
4.6682677e-05
-7.7499217e-15
4.6682677e-05
-4.0613868e-15
4.6682677e-05
-6.3997633e-16
4.6682677e-05
2.6418812e-15
4.6682677e-05
3.9838352e-15
4.6682677e-05
5.7489873e-15
4.6682677e-05
5.9696768e-15
4.6682677e-05
7.0182019e-15
4.6682677e-05
6.951135e-15
4.6682677e-05
7.3958565e-15
4.6682677e-05
6.1968918e-15
4.6682677e-05
5.5997466e-15
4.6682677e-05
4.5318981e-15
4.6682677e-05
4.7634249e-15
4.6682677e-05
5.4689844e-15
4.6682677e-05
7.4443647e-15
4.6682677e-05
9.2844773e-15
4.6682677e-05
1.0965045e-14
4.6682677e-05
1.1997183e-14
4.6682677e-05
1.2408599e-14
4.6682677e-05
1.2826446e-14
4.6682677e-05
1.181356e-14
4.6682677e-05
1.0775633e-14
4.6682677e-05
7.7696962e-15
4.6682677e-05
5.9418151e-15
4.6682677e-05
4.1994804e-15
4.6682677e-05
4.3640219e-15
4.6682677e-05
4.669064e-15
4.6682677e-05
5.4862173e-15
4.6682677e-05
5.3442788e-15
4.6682677e-05
6.0727162e-15
4.6682677e-05
5.5634775e-15
4.6682677e-05
6.4153518e-15
4.6682677e-05
5.6355384e-15
4.6682677e-05
6.3656418e-15
4.6682677e-05
5.2014726e-15
4.6682677e-05
5.8611725e-15
4.6682677e-05
4.3744933e-15
4.6682677e-05
4.9578285e-15
4.6682677e-05
3.4136277e-15
4.6682677e-05
4.4481196e-15
4.6682677e-05
3.4986437e-15
4.6682677e-05
5.0242425e-15
4.6682677e-05
4.5277818e-15
4.6682677e-05
5.8736046e-15
4.6682677e-05
5.0347804e-15
4.6682677e-05
5.4842856e-15
4.6682677e-05
3.9803133e-15
4.6682677e-05
3.6423811e-15
4.6682677e-05
2.0742508e-15
4.6682677e-05
1.7716094e-15
4.6682677e-05
8.5628145e-16
4.6682677e-05
1.1165513e-15
4.6682677e-05
1.055407e-15
4.6682677e-05
1.4385381e-15
4.6682677e-05
1.768602e-15
4.6682677e-05
2.2740384e-15
4.6682677e-05
3.2693814e-15
4.6682677e-05
3.6899319e-15
4.6682677e-05
4.484204e-15
4.6682677e-05
3.736292e-15
4.6682677e-05
3.7499488e-15
4.6682677e-05
2.3409455e-15
4.6682677e-05
2.846788e-15
4.6682677e-05
2.0589911e-15
4.6682677e-05
2.8454563e-15
4.6682677e-05
9.7993396e-16
4.6682677e-05
8.8348314e-16
4.6682677e-05
-2.9015964e-15
4.6682677e-05
-4.3057327e-15
4.6682677e-05
-8.174377e-15
4.6682677e-05
-7.6296053e-15
4.6682677e-05
-8.7842886e-15
4.6682677e-05
-6.4927821e-15
4.6682677e-05
-6.745351e-15
4.6682677e-05
-5.2528793e-15
4.6682677e-05
-6.3572074e-15
4.6682677e-05
-3.2108011e-15
4.6682677e-05
-2.1301895e-15
4.6682677e-05
1.2880558e-15
4.6682677e-05
1.2560947e-15
4.6682677e-05
3.3270137e-15
4.6682677e-05
2.2521867e-15
4.6682677e-05
3.8042234e-15
4.6682677e-05
2.5170472e-15
4.6682677e-05
3.8188692e-15
4.6682677e-05
2.5055464e-15
4.6682677e-05
3.763578e-15
4.6682677e-05
2.4743825e-15
4.6682677e-05
3.7583122e-15
4.6682677e-05
2.6296669e-15
4.6682677e-05
4.008741e-15
4.6682677e-05
3.0936352e-15
4.6682677e-05
4.4999634e-15
4.6682677e-05
3.8772915e-15
4.6682677e-05
5.4821638e-15
4.6682677e-05
5.2077921e-15
4.6682677e-05
6.2799546e-15
4.6682677e-05
5.5214843e-15
4.6682677e-05
6.0367789e-15
4.6682677e-05
5.3181643e-15
4.6682677e-05
5.3718845e-15
4.6682677e-05
4.6626748e-15
4.6682677e-05
3.7942539e-15
4.6682677e-05
1.865834e-15
4.6682677e-05
-7.7478221e-16
4.6682677e-05
-2.4427577e-15
4.6682677e-05
-3.5134641e-15
4.6682677e-05
-1.4439001e-15
4.6682677e-05
-3.1991956e-16
4.6682677e-05
2.7033795e-15
4.6682677e-05
2.8932732e-15
4.6682677e-05
3.9271776e-15
4.6682677e-05
2.9361776e-15
4.6682677e-05
3.5312771e-15
4.6682677e-05
2.3769692e-15
4.6682677e-05
2.7631908e-15
4.6682677e-05
2.1786134e-15
4.6682677e-05
2.6780734e-15
4.6682677e-05
2.7453949e-15
4.6682677e-05
2.8041861e-15
4.6682677e-05
2.5870075e-15
4.6682677e-05
1.7441185e-15
4.6682677e-05
2.2096315e-15
4.6682677e-05
2.2652194e-15
4.6682677e-05
4.597149e-15
4.6682677e-05
5.2200921e-15
4.6682677e-05
6.422815e-15
4.6682677e-05
4.0139557e-15
4.6682677e-05
3.105852e-15
4.6682677e-05
-1.2117564e-15
4.6682677e-05
-3.0090652e-15
4.6682677e-05
-7.360887e-15
4.6682677e-05
-7.7585819e-15
4.6682677e-05
-8.7750936e-15
4.6682677e-05
-5.0281072e-15
4.6682677e-05
-1.9362711e-15
4.6682677e-05
1.9440966e-15
4.6682677e-05
2.7905734e-15
4.6682677e-05
1.7224909e-15
4.6682677e-05
-1.6998312e-15
4.6682677e-05
-5.0054826e-15
4.6682677e-05
-4.9393529e-15
4.6682677e-05
-3.9331753e-15
4.6682677e-05
-4.6688419e-16
4.6682677e-05
-5.8228253e-16
4.6682677e-05
-1.6574287e-17
4.6682677e-05
-2.2763172e-15
4.6682677e-05
-2.0701739e-15
4.6682677e-05
-5.2646444e-15
4.6682677e-05
-5.5309287e-15
4.6682677e-05
-8.4914607e-15
4.6682677e-05
-6.9887218e-15
4.6682677e-05
-7.3365494e-15
4.6682677e-05
-2.3123578e-15
4.6682677e-05
-4.7967174e-16
4.6682677e-05
5.2317905e-15
4.6682677e-05
6.7893523e-15
4.6682677e-05
1.0248611e-14
4.6682677e-05
9.3737509e-15
4.6682677e-05
8.2696969e-15
4.6682677e-05
4.6613929e-15
4.6682677e-05
1.8423128e-15
4.6682677e-05
8.2436317e-16
4.6682677e-05
7.206684e-16
4.6682677e-05
2.5589546e-15
4.6682677e-05
3.1093287e-15
4.6682677e-05
5.4950483e-15
4.6682677e-05
4.4257485e-15
4.6682677e-05
5.2110862e-15
4.6682677e-05
3.0495587e-15
4.6682677e-05
4.2261963e-15
4.6682677e-05
2.8617863e-15
4.6682677e-05
4.8041231e-15
4.6682677e-05
3.3920894e-15
4.6682677e-05
4.4549004e-15
4.6682677e-05
2.3735082e-15
4.6682677e-05
3.2251201e-15
4.6682677e-05
2.5831609e-15
4.6682677e-05
4.9066172e-15
4.6682677e-05
5.1964732e-15
4.6682677e-05
6.6419354e-15
4.6682677e-05
5.7089725e-15
4.6682677e-05
4.5425301e-15
4.6682677e-05
1.2877046e-15
4.6682677e-05
-2.0588183e-15
4.6682677e-05
-4.6503653e-15
4.6682677e-05
-6.4696513e-15
4.6682677e-05
-5.9535016e-15
4.6682677e-05
-6.1733538e-15
4.6682677e-05
-4.1904898e-15
4.6682677e-05
-4.3623896e-15
4.6682677e-05
-3.3973586e-15
4.6682677e-05
-5.5653542e-15
4.6682677e-05
-6.4670171e-15
4.6682677e-05
-8.2255214e-15
4.6682677e-05
-5.9659148e-15
4.6682677e-05
-4.1779684e-15
4.6682677e-05
7.5596044e-17
4.6682677e-05
1.5847546e-15
4.6682677e-05
3.8329403e-15
4.6682677e-05
3.8469687e-15
4.6682677e-05
4.7855031e-15
4.6682677e-05
4.2483624e-15
4.6682677e-05
4.9268113e-15
4.6682677e-05
4.4151701e-15
4.6682677e-05
4.3817151e-15
4.6682677e-05
2.6287059e-15
4.6682677e-05
3.0138096e-15
4.6682677e-05
4.4085288e-15
4.6682677e-05
6.3235997e-15
2.920776e-15
0.00019469214
0.00040416928
0.00014360962
0.00012695405
0.00011230147
6.1638428e-05
9.6619294e-05
3.0581082e-05
8.776222e-05
1.6323399e-05
8.2755406e-05
9.4095835e-06
7.9871701e-05
5.2600295e-06
7.8206034e-05
3.0813043e-06
7.7256668e-05
1.7211998e-06
7.6718195e-05
9.847396e-07
7.6420462e-05
5.3569694e-07
7.6258218e-05
2.9317053e-07
7.6172993e-05
1.5149446e-07
7.61296e-05
7.7054853e-08
7.6108851e-05
3.5991847e-08
7.6099695e-05
1.5633144e-08
7.6096324e-05
5.3599178e-09
7.6095587e-05
8.8243184e-10
7.6095937e-05
-9.467132e-10
7.6096611e-05
-1.4104895e-09
7.609729e-05
-1.352381e-09
7.6097854e-05
-1.0923605e-09
7.609828e-05
-8.1594366e-10
7.6098584e-05
-5.7511327e-10
7.6098791e-05
-3.9111469e-10
7.6098929e-05
-2.5759286e-10
7.6099018e-05
-1.6573292e-10
7.6099074e-05
-1.0422428e-10
7.6099108e-05
-6.4324605e-11
7.609913e-05
-3.8941752e-11
7.6099142e-05
-2.3159032e-11
7.609915e-05
-1.3507368e-11
7.6099154e-05
-7.7222949e-12
7.6099156e-05
-4.3182557e-12
7.6099157e-05
-2.3585156e-12
7.6099158e-05
-1.2508964e-12
7.6099158e-05
-6.3843336e-13
7.6099159e-05
-3.0581659e-13
7.6099159e-05
-1.313762e-13
7.6099159e-05
-4.4407963e-14
7.6099159e-05
-5.919499e-15
7.6099159e-05
8.8084556e-15
7.6099159e-05
1.2190275e-14
7.6099159e-05
1.1342935e-14
7.6099159e-05
1.0152808e-14
7.6099159e-05
9.1903768e-15
7.6099159e-05
8.7292123e-15
7.6099159e-05
7.3682447e-15
7.6099159e-05
6.4805778e-15
7.6099159e-05
5.5880861e-15
7.6099159e-05
6.4789529e-15
7.6099159e-05
7.0366209e-15
7.6099159e-05
8.8931824e-15
7.6099159e-05
9.3371983e-15
7.6099159e-05
9.7740354e-15
7.6099159e-05
9.1803993e-15
7.6099159e-05
1.0382254e-14
7.6099159e-05
1.1816112e-14
7.6099159e-05
1.2518048e-14
7.6099159e-05
1.0052198e-14
7.6099159e-05
3.8041209e-15
7.6099159e-05
-2.9678038e-15
7.6099159e-05
-7.9603612e-15
7.6099159e-05
-1.1084062e-14
7.6099159e-05
-1.2105467e-14
7.6099159e-05
-1.2521676e-14
7.6099159e-05
-1.1924043e-14
7.6099159e-05
-1.0999967e-14
7.6099159e-05
-9.6677182e-15
7.6099159e-05
-8.563212e-15
7.6099159e-05
-8.0471724e-15
7.6099159e-05
-7.0801327e-15
7.6099159e-05
-7.273789e-15
7.6099159e-05
-6.7965428e-15
7.6099159e-05
-7.4384504e-15
7.6099159e-05
-6.9922666e-15
7.6099159e-05
-7.4428717e-15
7.6099159e-05
-6.7372828e-15
7.6099159e-05
-7.1681746e-15
7.6099159e-05
-6.5649259e-15
7.6099159e-05
-7.0213143e-15
7.6099159e-05
-6.2235999e-15
7.6099159e-05
-6.3814849e-15
7.6099159e-05
-5.637201e-15
7.6099159e-05
-6.9169672e-15
7.6099159e-05
-7.5546521e-15
7.6099159e-05
-9.1453662e-15
7.6099159e-05
-8.5791215e-15
7.6099159e-05
-6.8140831e-15
7.6099159e-05
-2.6988848e-15
7.6099159e-05
7.2609589e-16
7.6099159e-05
3.7866094e-15
7.6099159e-05
4.6577703e-15
7.6099159e-05
6.1705396e-15
7.6099159e-05
6.4438928e-15
7.6099159e-05
7.5521096e-15
7.6099159e-05
7.5598297e-15
7.6099159e-05
7.8831676e-15
7.6099159e-05
6.6621982e-15
7.6099159e-05
5.9362929e-15
7.6099159e-05
5.1766689e-15
7.6099159e-05
5.694135e-15
7.6099159e-05
6.9639052e-15
7.6099159e-05
9.1115138e-15
7.6099159e-05
1.1004057e-14
7.6099159e-05
1.2577628e-14
7.6099159e-05
1.3747495e-14
7.6099159e-05
1.4223656e-14
7.6099159e-05
1.5203927e-14
7.6099159e-05
1.4163849e-14
7.6099159e-05
1.3371396e-14
7.6099159e-05
9.6972296e-15
7.6099159e-05
7.6376694e-15
7.6099159e-05
5.173934e-15
7.6099159e-05
5.7216869e-15
7.6099159e-05
5.5561413e-15
7.6099159e-05
6.8241558e-15
7.6099159e-05
6.3533912e-15
7.6099159e-05
7.3912155e-15
7.6099159e-05
6.4454012e-15
7.6099159e-05
7.5758585e-15
7.6099159e-05
6.3175636e-15
7.6099159e-05
7.3617655e-15
7.6099159e-05
5.7820198e-15
7.6099159e-05
6.7388413e-15
7.6099159e-05
4.8519223e-15
7.6099159e-05
5.6897998e-15
7.6099159e-05
3.7998502e-15
7.6099159e-05
5.1314665e-15
7.6099159e-05
3.8575616e-15
7.6099159e-05
5.5258804e-15
7.6099159e-05
4.5569164e-15
7.6099159e-05
5.8465277e-15
7.6099159e-05
4.4475875e-15
7.6099159e-05
4.8716029e-15
7.6099159e-05
2.9765584e-15
7.6099159e-05
2.7500345e-15
7.6099159e-05
9.3671045e-16
7.6099159e-05
7.5138543e-16
7.6099159e-05
-3.5264443e-16
7.6099159e-05
-8.0425446e-17
7.6099159e-05
-2.8211281e-16
7.6099159e-05
9.341518e-17
7.6099159e-05
4.5615308e-16
7.6099159e-05
1.0552557e-15
7.6099159e-05
2.2029351e-15
7.6099159e-05
2.6281804e-15
7.6099159e-05
3.5790201e-15
7.6099159e-05
2.6708846e-15
7.6099159e-05
2.8264921e-15
7.6099159e-05
1.2594587e-15
7.6099159e-05
1.9747296e-15
7.6099159e-05
6.8367207e-16
7.6099159e-05
1.3048845e-15
7.6099159e-05
-1.482959e-15
7.6099159e-05
-1.8741703e-15
7.6099159e-05
-6.5821707e-15
7.6099159e-05
-7.9682691e-15
7.6099159e-05
-1.2462775e-14
7.6099159e-05
-1.144873e-14
7.6099159e-05
-1.2568778e-14
7.6099159e-05
-8.9093615e-15
7.6099159e-05
-8.2976198e-15
7.6099159e-05
-5.4567845e-15
7.6099159e-05
-6.3062666e-15
7.6099159e-05
-2.4018336e-15
7.6099159e-05
-1.7684401e-15
7.6099159e-05
1.945416e-15
7.6099159e-05
1.2380114e-15
7.6099159e-05
3.5725847e-15
7.6099159e-05
2.0251578e-15
7.6099159e-05
3.9740336e-15
7.6099159e-05
2.324965e-15
7.6099159e-05
4.0912411e-15
7.6099159e-05
2.4051719e-15
7.6099159e-05
4.1090522e-15
7.6099159e-05
2.4459805e-15
7.6099159e-05
4.1757017e-15
7.6099159e-05
2.7334884e-15
7.6099159e-05
4.5801623e-15
7.6099159e-05
3.4617207e-15
7.6099159e-05
5.3933247e-15
7.6099159e-05
4.6463559e-15
7.6099159e-05
6.7288156e-15
7.6099159e-05
6.224848e-15
7.6099159e-05
7.6647537e-15
7.6099159e-05
6.7327331e-15
7.6099159e-05
7.5627215e-15
7.6099159e-05
6.6741142e-15
7.6099159e-05
6.8671617e-15
7.6099159e-05
5.8778974e-15
7.6099159e-05
4.8637038e-15
7.6099159e-05
2.8400046e-15
7.6099159e-05
2.3840988e-16
7.6099159e-05
-8.8585998e-16
7.6099159e-05
-1.628801e-15
7.6099159e-05
9.7201823e-16
7.6099159e-05
2.050913e-15
7.6099159e-05
5.1614665e-15
7.6099159e-05
4.6826623e-15
7.6099159e-05
5.265821e-15
7.6099159e-05
3.3514402e-15
7.6099159e-05
3.6854924e-15
7.6099159e-05
1.9723507e-15
7.6099159e-05
2.3470978e-15
7.6099159e-05
1.4491807e-15
7.6099159e-05
1.7895159e-15
7.6099159e-05
1.583735e-15
7.6099159e-05
1.4307e-15
7.6099159e-05
1.2678356e-15
7.6099159e-05
4.7402825e-16
7.6099159e-05
1.4538494e-15
7.6099159e-05
1.8273073e-15
7.6099159e-05
4.6757551e-15
7.6099159e-05
5.052037e-15
7.6099159e-05
6.1785137e-15
7.6099159e-05
2.9847078e-15
7.6099159e-05
1.9853085e-15
7.6099159e-05
-3.0312824e-15
7.6099159e-05
-4.7519095e-15
7.6099159e-05
-9.422542e-15
7.6099159e-05
-9.0862432e-15
7.6099159e-05
-9.7982977e-15
7.6099159e-05
-5.2245534e-15
7.6099159e-05
-1.967117e-15
7.6099159e-05
2.2689915e-15
7.6099159e-05
2.9988089e-15
7.6099159e-05
2.145534e-15
7.6099159e-05
-7.7653926e-16
7.6099159e-05
-3.7408127e-15
7.6099159e-05
-3.0002869e-15
7.6099159e-05
-2.0293153e-15
7.6099159e-05
1.3596566e-15
7.6099159e-05
6.083802e-16
7.6099159e-05
1.1461303e-15
7.6099159e-05
-1.8379395e-15
7.6099159e-05
-1.5948307e-15
7.6099159e-05
-5.7739199e-15
7.6099159e-05
-5.813946e-15
7.6099159e-05
-9.2850334e-15
7.6099159e-05
-6.696098e-15
7.6099159e-05
-7.0971207e-15
7.6099159e-05
-1.1505268e-15
7.6099159e-05
4.9709926e-16
7.6099159e-05
6.7288697e-15
7.6099159e-05
7.8108728e-15
7.6099159e-05
1.1282742e-14
7.6099159e-05
9.4889845e-15
7.6099159e-05
7.9984629e-15
7.6099159e-05
3.8584576e-15
7.6099159e-05
1.0729266e-15
7.6099159e-05
-2.7112289e-17
7.6099159e-05
-4.3818511e-16
7.6099159e-05
1.4446968e-15
7.6099159e-05
1.525694e-15
7.6099159e-05
4.3539723e-15
7.6099159e-05
3.1563654e-15
7.6099159e-05
4.6073686e-15
7.6099159e-05
2.4135126e-15
7.6099159e-05
4.3824637e-15
7.6099159e-05
3.0098629e-15
7.6099159e-05
5.5668076e-15
7.6099159e-05
3.9900783e-15
7.6099159e-05
5.5746534e-15
7.6099159e-05
3.4589888e-15
7.6099159e-05
4.8623855e-15
7.6099159e-05
3.9805234e-15
7.6099159e-05
6.2982832e-15
7.6099159e-05
5.8075003e-15
7.6099159e-05
6.8945995e-15
7.6099159e-05
5.2496484e-15
7.6099159e-05
3.8598706e-15
7.6099159e-05
6.1827597e-16
7.6099159e-05
-2.5047366e-15
7.6099159e-05
-4.7622756e-15
7.6099159e-05
-6.5668952e-15
7.6099159e-05
-5.6356877e-15
7.6099159e-05
-5.9285212e-15
7.6099159e-05
-3.6013598e-15
7.6099159e-05
-4.0848764e-15
7.6099159e-05
-3.1325248e-15
7.6099159e-05
-5.9242217e-15
7.6099159e-05
-6.6098964e-15
7.6099159e-05
-8.5289282e-15
7.6099159e-05
-5.5111543e-15
7.6099159e-05
-3.6885127e-15
7.6099159e-05
7.2841535e-16
7.6099159e-05
1.9037401e-15
7.6099159e-05
4.2564866e-15
7.6099159e-05
4.0819403e-15
7.6099159e-05
5.2744544e-15
7.6099159e-05
4.5964921e-15
7.6099159e-05
5.4738718e-15
7.6099159e-05
4.7110409e-15
7.6099159e-05
4.6758749e-15
7.6099159e-05
2.8312022e-15
7.6099159e-05
3.8098288e-15
7.6099159e-05
5.2105188e-15
7.6099159e-05
6.6132997e-15
2.468614e-15
0.00023312986
0.00043770621
0.00018548526
0.00017459865
0.00015018421
9.6939488e-05
0.0001310242
4.9741101e-05
0.00011965162
2.7695988e-05
0.0001131446
1.5916617e-05
0.00010931814
9.0865068e-06
0.00010710183
5.2976333e-06
0.0001058215
3.0015528e-06
0.00010509347
1.7127779e-06
0.00010468612
9.4304775e-07
0.00010446306
5.1623152e-07
0.00010434425
2.7031072e-07
0.00010428311
1.3819174e-07
0.00010425319
6.5912012e-08
0.00010423959
2.9232256e-08
0.0001042342
1.0750635e-08
0.00010423268
2.403288e-09
0.00010423281
-1.0818636e-09
0.00010423352
-2.1171446e-09
0.00010423431
-2.1447392e-09
0.000104235
-1.7796776e-09
0.00010423553
-1.3480826e-09
0.00010423592
-9.6026262e-10
0.00010423618
-6.5753158e-10
0.00010423636
-4.3568499e-10
0.00010423648
-2.815963e-10
0.00010423655
-1.7787466e-10
0.0001042366
-1.101902e-10
0.00010423662
-6.696272e-11
0.00010423664
-3.9968816e-11
0.00010423665
-2.3407744e-11
0.00010423666
-1.3442591e-11
0.00010423666
-7.554244e-12
0.00010423666
-4.1456217e-12
0.00010423666
-2.2092524e-12
0.00010423666
-1.1345669e-12
0.00010423666
-5.4986876e-13
0.00010423666
-2.4301334e-13
0.00010423666
-9.0103396e-14
0.00010423666
-2.1721208e-14
0.00010423666
5.4060969e-15
0.00010423666
1.2924268e-14
0.00010423666
1.3742475e-14
0.00010423666
1.2851245e-14
0.00010423666
1.1265119e-14
0.00010423666
9.5236973e-15
0.00010423666
7.4906393e-15
0.00010423666
6.4885722e-15
0.00010423666
6.1610497e-15
0.00010423666
7.2293274e-15
0.00010423666
7.3293561e-15
0.00010423666
8.3519658e-15
0.00010423666
8.0018178e-15
0.00010423666
8.3287197e-15
0.00010423666
8.2288132e-15
0.00010423666
1.0233965e-14
0.00010423666
1.1393072e-14
0.00010423666
1.1230066e-14
0.00010423666
7.178725e-15
0.00010423666
1.3622355e-16
0.00010423666
-5.5697803e-15
0.00010423666
-8.7505708e-15
0.00010423666
-9.8838608e-15
0.00010423666
-9.3919696e-15
0.00010423666
-9.5241454e-15
0.00010423666
-8.8465956e-15
0.00010423666
-8.7053339e-15
0.00010423666
-8.1611255e-15
0.00010423666
-7.6607766e-15
0.00010423666
-7.6023707e-15
0.00010423666
-6.6144287e-15
0.00010423666
-6.801832e-15
0.00010423666
-6.2045744e-15
0.00010423666
-6.7863374e-15
0.00010423666
-6.2983688e-15
0.00010423666
-6.6958445e-15
0.00010423666
-5.992618e-15
0.00010423666
-6.416329e-15
0.00010423666
-5.7744795e-15
0.00010423666
-6.1262311e-15
0.00010423666
-5.1206092e-15
0.00010423666
-5.3993468e-15
0.00010423666
-4.7844113e-15
0.00010423666
-6.3074178e-15
0.00010423666
-6.5917998e-15
0.00010423666
-7.7423394e-15
0.00010423666
-6.0626091e-15
0.00010423666
-3.7897524e-15
0.00010423666
6.0023068e-16
0.00010423666
3.2633526e-15
0.00010423666
5.3155401e-15
0.00010423666
4.6914701e-15
0.00010423666
5.7817893e-15
0.00010423666
5.6233417e-15
0.00010423666
7.1994243e-15
0.00010423666
6.9576138e-15
0.00010423666
7.5474123e-15
0.00010423666
5.8512757e-15
0.00010423666
5.7899656e-15
0.00010423666
5.0976913e-15
0.00010423666
6.7703029e-15
0.00010423666
8.2653093e-15
0.00010423666
1.0743739e-14
0.00010423666
1.1789835e-14
0.00010423666
1.3268406e-14
0.00010423666
1.3476574e-14
0.00010423666
1.460538e-14
0.00010423666
1.5499319e-14
0.00010423666
1.5311751e-14
0.00010423666
1.4686479e-14
0.00010423666
1.1299141e-14
0.00010423666
8.8978416e-15
0.00010423666
6.6598773e-15
0.00010423666
6.5564116e-15
0.00010423666
6.7995559e-15
0.00010423666
7.5909954e-15
0.00010423666
7.439717e-15
0.00010423666
8.0537199e-15
0.00010423666
7.1634269e-15
0.00010423666
7.9363588e-15
0.00010423666
6.6504053e-15
0.00010423666
7.5209802e-15
0.00010423666
5.9904342e-15
0.00010423666
6.8472076e-15
0.00010423666
5.0307775e-15
0.00010423666
5.7124835e-15
0.00010423666
3.9504899e-15
0.00010423666
5.2208665e-15
0.00010423666
3.9063542e-15
0.00010423666
5.28728e-15
0.00010423666