/*--------------------------------*- C++ -*----------------------------------*\
| =========                 |                                                 |
| \\      /  F ield         | OpenFOAM: The Open Source CFD Toolbox           |
|  \\    /   O peration     | Version:  2206                                  |
|   \\  /    A nd           | Website:  www.openfoam.com                      |
|    \\/     M anipulation  |                                                 |
\*---------------------------------------------------------------------------*/
FoamFile
{
    version     2.0;
    format      ascii;
    arch        "LSB;label=32;scalar=64";
    class       volVectorField;
    location    "15";
    object      U;
}
// * * * * * * * * * * * * * * * * * * * * * * * * * * * * * * * * * * * * * //

dimensions      [0 1 -1 0 0 0 0];

internalField   nonuniform List<vector> 
15000
(
(0.15962853 0.053997677 0)
(0.11557193 0.0064916367 0)
(0.064251361 0.0014144145 0)
(0.055918597 0.00074959504 0)
(0.047595815 0.00028826486 0)
(0.044708798 0.00019884125 0)
(0.042412494 9.0520846e-05 0)
(0.041406638 6.0126813e-05 0)
(0.040707476 2.8978318e-05 0)
(0.04037699 1.8018973e-05 0)
(0.040167797 8.6616947e-06 0)
(0.040068659 4.9953282e-06 0)
(0.040011053 2.2669796e-06 0)
(0.039985308 1.1730364e-06 0)
(0.039971973 4.4597261e-07 0)
(0.039967049 1.7341349e-07 0)
(0.03996518 1.3875862e-08 0)
(0.039965127 -3.0229494e-08 0)
(0.039965544 -4.860293e-08 0)
(0.039966152 -4.3135285e-08 0)
(0.03996668 -3.5625429e-08 0)
(0.039967111 -2.5930563e-08 0)
(0.039967422 -1.8459741e-08 0)
(0.039967642 -1.2410121e-08 0)
(0.03996779 -8.229579e-09 0)
(0.039967887 -5.2712192e-09 0)
(0.039967949 -3.3331503e-09 0)
(0.039967988 -2.0534998e-09 0)
(0.039968012 -1.248793e-09 0)
(0.039968026 -7.4315475e-10 0)
(0.039968035 -4.3544464e-10 0)
(0.03996804 -2.4890587e-10 0)
(0.039968042 -1.3900402e-10 0)
(0.039968044 -7.561626e-11 0)
(0.039968045 -4.0456227e-11 0)
(0.039968045 -2.1128265e-11 0)
(0.039968045 -1.0622668e-11 0)
(0.039968046 -4.6733001e-12 0)
(0.039968046 -1.3989807e-12 0)
(0.039968046 3.0169149e-13 0)
(0.039968046 9.1256523e-13 0)
(0.039968046 1.0237285e-12 0)
(0.039968046 9.0978415e-13 0)
(0.039968046 6.9239708e-13 0)
(0.039968046 6.3688865e-13 0)
(0.039968046 6.5837236e-13 0)
(0.039968046 7.7195673e-13 0)
(0.039968046 7.114932e-13 0)
(0.039968046 6.7187421e-13 0)
(0.039968046 5.7815188e-13 0)
(0.039968046 7.1898091e-13 0)
(0.039968046 8.2754603e-13 0)
(0.039968046 1.1089196e-12 0)
(0.039968046 1.1770863e-12 0)
(0.039968046 1.2173467e-12 0)
(0.039968046 1.1217735e-12 0)
(0.039968046 1.222142e-12 0)
(0.039968046 1.4127352e-12 0)
(0.039968046 1.6145974e-12 0)
(0.039968046 1.3974301e-12 0)
(0.039968046 6.7475959e-13 0)
(0.039968046 -2.1606493e-13 0)
(0.039968046 -9.4102082e-13 0)
(0.039968046 -1.4348871e-12 0)
(0.039968046 -1.662156e-12 0)
(0.039968046 -1.7307281e-12 0)
(0.039968046 -1.6648349e-12 0)
(0.039968046 -1.5125931e-12 0)
(0.039968046 -1.2978638e-12 0)
(0.039968046 -1.0939894e-12 0)
(0.039968046 -1.014735e-12 0)
(0.039968046 -8.7139153e-13 0)
(0.039968046 -9.1611359e-13 0)
(0.039968046 -8.4568944e-13 0)
(0.039968046 -9.5225404e-13 0)
(0.039968046 -8.7998748e-13 0)
(0.039968046 -9.6427956e-13 0)
(0.039968046 -8.5625243e-13 0)
(0.039968046 -9.3620435e-13 0)
(0.039968046 -8.3961791e-13 0)
(0.039968046 -9.258009e-13 0)
(0.039968046 -8.1088164e-13 0)
(0.039968046 -8.4302435e-13 0)
(0.039968046 -7.2287559e-13 0)
(0.039968046 -8.7906058e-13 0)
(0.039968046 -9.589388e-13 0)
(0.039968046 -1.2352463e-12 0)
(0.039968046 -1.2058977e-12 0)
(0.039968046 -1.027823e-12 0)
(0.039968046 -5.1892554e-13 0)
(0.039968046 -5.6867558e-14 0)
(0.039968046 3.865244e-13 0)
(0.039968046 5.691606e-13 0)
(0.039968046 7.8764859e-13 0)
(0.039968046 8.3433377e-13 0)
(0.039968046 9.5468671e-13 0)
(0.039968046 9.6226855e-13 0)
(0.039968046 9.9656713e-13 0)
(0.039968046 8.7262554e-13 0)
(0.039968046 7.4994005e-13 0)
(0.039968046 6.4718836e-13 0)
(0.039968046 6.3842977e-13 0)
(0.039968046 7.7720965e-13 0)
(0.039968046 1.0159915e-12 0)
(0.039968046 1.2897418e-12 0)
(0.039968046 1.4721658e-12 0)
(0.039968046 1.6894718e-12 0)
(0.039968046 1.6929717e-12 0)
(0.039968046 1.8343221e-12 0)
(0.039968046 1.6117123e-12 0)
(0.039968046 1.5161182e-12 0)
(0.039968046 1.0030302e-12 0)
(0.039968046 7.9222451e-13 0)
(0.039968046 4.5934277e-13 0)
(0.039968046 6.0926826e-13 0)
(0.039968046 5.583618e-13 0)
(0.039968046 7.7955483e-13 0)
(0.039968046 6.8267546e-13 0)
(0.039968046 8.6418465e-13 0)
(0.039968046 7.1700559e-13 0)
(0.039968046 9.0666082e-13 0)
(0.039968046 7.2054346e-13 0)
(0.039968046 8.906424e-13 0)
(0.039968046 6.5264881e-13 0)
(0.039968046 8.0907159e-13 0)
(0.039968046 5.3174654e-13 0)
(0.039968046 6.7638963e-13 0)
(0.039968046 3.9682107e-13 0)
(0.039968046 5.9757197e-13 0)
(0.039968046 4.0761727e-13 0)
(0.039968046 6.6595287e-13 0)
(0.039968046 5.4578456e-13 0)
(0.039968046 7.7057979e-13 0)
(0.039968046 6.0859349e-13 0)
(0.039968046 7.1105729e-13 0)
(0.039968046 4.6911542e-13 0)
(0.039968046 4.6415454e-13 0)
(0.039968046 2.2026647e-13 0)
(0.039968046 2.1508731e-13 0)
(0.039968046 7.1490596e-14 0)
(0.039968046 1.2727064e-13 0)
(0.039968046 1.0772893e-13 0)
(0.039968046 1.6754429e-13 0)
(0.039968046 2.115027e-13 0)
(0.039968046 2.7856003e-13 0)
(0.039968046 4.176004e-13 0)
(0.039968046 4.5314373e-13 0)
(0.039968046 5.7707468e-13 0)
(0.039968046 4.5003409e-13 0)
(0.039968046 4.8170362e-13 0)
(0.039968046 2.6355184e-13 0)
(0.039968046 3.8343449e-13 0)
(0.039968046 2.2769104e-13 0)
(0.039968046 3.9385749e-13 0)
(0.039968046 8.4724967e-14 0)
(0.039968046 1.3797572e-13 0)
(0.039968046 -4.4901797e-13 0)
(0.039968046 -5.5141084e-13 0)
(0.039968046 -1.131077e-12 0)
(0.039968046 -9.6250368e-13 0)
(0.039968046 -1.183043e-12 0)
(0.039968046 -7.653117e-13 0)
(0.039968046 -8.2804618e-13 0)
(0.039968046 -5.6469163e-13 0)
(0.039968046 -8.1038259e-13 0)
(0.039968046 -3.2919457e-13 0)
(0.039968046 -2.8467709e-13 0)
(0.039968046 2.4667682e-13 0)
(0.039968046 1.5742829e-13 0)
(0.039968046 5.0461764e-13 0)
(0.039968046 2.9017936e-13 0)
(0.039968046 5.6402392e-13 0)
(0.039968046 3.214965e-13 0)
(0.039968046 5.5888558e-13 0)
(0.039968046 3.1744664e-13 0)
(0.039968046 5.4820044e-13 0)
(0.039968046 3.1054494e-13 0)
(0.039968046 5.4122175e-13 0)
(0.039968046 3.2956808e-13 0)
(0.039968046 5.7140824e-13 0)
(0.039968046 4.0037021e-13 0)
(0.039968046 6.4724946e-13 0)
(0.039968046 5.2300653e-13 0)
(0.039968046 7.9149751e-13 0)
(0.039968046 7.1290386e-13 0)
(0.039968046 9.0320589e-13 0)
(0.039968046 7.74294e-13 0)
(0.039968046 8.8499852e-13 0)
(0.039968046 7.6703291e-13 0)
(0.039968046 8.1194921e-13 0)
(0.039968046 7.0472617e-13 0)
(0.039968046 5.9828763e-13 0)
(0.039968046 3.5313072e-13 0)
(0.039968046 -1.5601911e-14 0)
(0.039968046 -2.0184044e-13 0)
(0.039968046 -3.6517778e-13 0)
(0.039968046 -6.730747e-14 0)
(0.039968046 2.9523706e-14 0)
(0.039968046 4.4725258e-13 0)
(0.039968046 3.8218805e-13 0)
(0.039968046 5.0532157e-13 0)
(0.039968046 2.8501246e-13 0)
(0.039968046 3.7844471e-13 0)
(0.039968046 1.6292755e-13 0)
(0.039968046 2.5338341e-13 0)
(0.039968046 1.5843119e-13 0)
(0.039968046 2.5323219e-13 0)
(0.039968046 2.6822355e-13 0)
(0.039968046 2.7565922e-13 0)
(0.039968046 2.6589536e-13 0)
(0.039968046 1.3745325e-13 0)
(0.039968046 2.3120832e-13 0)
(0.039968046 2.1346426e-13 0)
(0.039968046 5.5773156e-13 0)
(0.039968046 6.0236892e-13 0)
(0.039968046 8.1226513e-13 0)
(0.039968046 4.4498556e-13 0)
(0.039968046 3.9346505e-13 0)
(0.039968046 -2.2679184e-13 0)
(0.039968046 -3.768407e-13 0)
(0.039968046 -9.8573277e-13 0)
(0.039968046 -9.3712235e-13 0)
(0.039968046 -1.0754787e-12 0)
(0.039968046 -4.6391202e-13 0)
(0.039968046 -4.8984239e-14 0)
(0.039968046 5.2789885e-13 0)
(0.039968046 5.9250087e-13 0)
(0.039968046 4.2032275e-13 0)
(0.039968046 -5.3573849e-14 0)
(0.039968046 -5.3904837e-13 0)
(0.039968046 -5.1955505e-13 0)
(0.039968046 -4.394701e-13 0)
(0.039968046 2.8782051e-14 0)
(0.039968046 -4.8544204e-14 0)
(0.039968046 7.9813792e-14 0)
(0.039968046 -2.8442644e-13 0)
(0.039968046 -1.7509876e-13 0)
(0.039968046 -6.8834988e-13 0)
(0.039968046 -6.3886746e-13 0)
(0.039968046 -1.1267953e-12 0)
(0.039968046 -8.3964851e-13 0)
(0.039968046 -1.0079574e-12 0)
(0.039968046 -2.7515663e-13 0)
(0.039968046 -1.4017158e-13 0)
(0.039968046 6.4804998e-13 0)
(0.039968046 7.3526039e-13 0)
(0.039968046 1.212848e-12 0)
(0.039968046 9.8029731e-13 0)
(0.039968046 8.1116011e-13 0)
(0.039968046 2.7493459e-13 0)
(0.039968046 -8.1981513e-14 0)
(0.039968046 -1.6641586e-13 0)
(0.039968046 -1.5305373e-13 0)
(0.039968046 1.9266364e-13 0)
(0.039968046 2.4983912e-13 0)
(0.039968046 6.8476616e-13 0)
(0.039968046 5.0751811e-13 0)
(0.039968046 7.0804204e-13 0)
(0.039968046 3.8302041e-13 0)
(0.039968046 6.2286812e-13 0)
(0.039968046 3.8042072e-13 0)
(0.039968046 7.0149482e-13 0)
(0.039968046 4.4654076e-13 0)
(0.039968046 6.3716358e-13 0)
(0.039968046 3.1382511e-13 0)
(0.039968046 4.9735324e-13 0)
(0.039968046 3.8527594e-13 0)
(0.039968046 7.582135e-13 0)
(0.039968046 7.7401978e-13 0)
(0.039968046 1.0457256e-12 0)
(0.039968046 9.1684015e-13 0)
(0.039968046 7.9957528e-13 0)
(0.039968046 3.7304939e-13 0)
(0.039968046 -7.7600305e-14 0)
(0.039968046 -4.1994566e-13 0)
(0.039968046 -7.2528472e-13 0)
(0.039968046 -6.6319926e-13 0)
(0.039968046 -7.7577037e-13 0)
(0.039968046 -5.0129045e-13 0)
(0.039968046 -5.9747744e-13 0)
(0.039968046 -4.3956681e-13 0)
(0.039968046 -7.9428089e-13 0)
(0.039968046 -8.6012029e-13 0)
(0.039968046 -1.1383099e-12 0)
(0.039968046 -7.9097587e-13 0)
(0.039968046 -5.9201281e-13 0)
(0.039968046 7.8100586e-15 0)
(0.039968046 1.7710272e-13 0)
(0.039968046 5.0524148e-13 0)
(0.039968046 4.7345107e-13 0)
(0.039968046 6.2877962e-13 0)
(0.039968046 5.3137337e-13 0)
(0.039968046 6.5150819e-13 0)
(0.039968046 5.5743306e-13 0)
(0.039968046 5.7116244e-13 0)
(0.039968046 3.1657348e-13 0)
(0.039968046 4.2404062e-13 0)
(0.039968046 5.903389e-13 0)
(0.039968046 8.2257109e-13 0)
(0.039968046 3.2954172e-13 0)
(0.36732384 0.14062829 0)
(0.29754389 0.025079371 0)
(0.1860793 0.0083694465 0)
(0.16132807 0.0041218609 0)
(0.13901859 0.0019375709 0)
(0.13040448 0.0011770179 0)
(0.12396461 0.00061112377 0)
(0.12095998 0.00037191354 0)
(0.1189454 0.00019726005 0)
(0.11794826 0.00011563684 0)
(0.11733081 6.0257723e-05 0)
(0.11702581 3.3414466e-05 0)
(0.11685065 1.6510466e-05 0)
(0.11676842 8.3910563e-06 0)
(0.1167257 3.6614918e-06 0)
(0.11670834 1.5194278e-06 0)
(0.1167012 3.9863102e-07 0)
(0.11669986 -2.8357572e-08 0)
(0.1167004 -1.9895523e-07 0)
(0.11670175 -2.1563583e-07 0)
(0.11670304 -1.8999738e-07 0)
(0.11670415 -1.457197e-07 0)
(0.11670497 -1.0615893e-07 0)
(0.11670557 -7.3186009e-08 0)
(0.11670597 -4.9145192e-08 0)
(0.11670624 -3.1955975e-08 0)
(0.11670642 -2.0384847e-08 0)
(0.11670653 -1.2699901e-08 0)
(0.11670659 -7.7820845e-09 0)
(0.11670664 -4.6743454e-09 0)
(0.11670666 -2.7606218e-09 0)
(0.11670667 -1.5958299e-09 0)
(0.11670668 -9.030629e-10 0)
(0.11670669 -4.9914356e-10 0)
(0.11670669 -2.7015118e-10 0)
(0.11670669 -1.4220355e-10 0)
(0.11670669 -7.2084945e-11 0)
(0.11670669 -3.3535797e-11 0)
(0.11670669 -1.3000734e-11 0)
(0.11670669 -2.6040574e-12 0)
(0.11670669 1.7659824e-12 0)
(0.11670669 3.1829066e-12 0)
(0.11670669 3.1353826e-12 0)
(0.11670669 2.5436776e-12 0)
(0.11670669 2.2298388e-12 0)
(0.11670669 2.2215104e-12 0)
(0.11670669 2.4881365e-12 0)
(0.11670669 2.3060827e-12 0)
(0.11670669 2.066502e-12 0)
(0.11670669 1.7741745e-12 0)
(0.11670669 2.0827006e-12 0)
(0.11670669 2.4013076e-12 0)
(0.11670669 3.2111947e-12 0)
(0.11670669 3.4886375e-12 0)
(0.11670669 3.606487e-12 0)
(0.11670669 3.3412956e-12 0)
(0.11670669 3.6046586e-12 0)
(0.11670669 4.1929399e-12 0)
(0.11670669 4.7256192e-12 0)
(0.11670669 4.1634086e-12 0)
(0.11670669 2.0439241e-12 0)
(0.11670669 -4.945328e-13 0)
(0.11670669 -2.7077418e-12 0)
(0.11670669 -4.1333828e-12 0)
(0.11670669 -4.8256499e-12 0)
(0.11670669 -5.0065536e-12 0)
(0.11670669 -4.8078863e-12 0)
(0.11670669 -4.3366006e-12 0)
(0.11670669 -3.7160174e-12 0)
(0.11670669 -3.162016e-12 0)
(0.11670669 -2.94707e-12 0)
(0.11670669 -2.5466289e-12 0)
(0.11670669 -2.6654675e-12 0)
(0.11670669 -2.4777835e-12 0)
(0.11670669 -2.7674814e-12 0)
(0.11670669 -2.5775875e-12 0)
(0.11670669 -2.7983444e-12 0)
(0.11670669 -2.5103243e-12 0)
(0.11670669 -2.7119204e-12 0)
(0.11670669 -2.4670632e-12 0)
(0.11670669 -2.69063e-12 0)
(0.11670669 -2.3987171e-12 0)
(0.11670669 -2.4671116e-12 0)
(0.11670669 -2.1390884e-12 0)
(0.11670669 -2.5776376e-12 0)
(0.11670669 -2.8032881e-12 0)
(0.11670669 -3.581926e-12 0)
(0.11670669 -3.5325693e-12 0)
(0.11670669 -3.0515478e-12 0)
(0.11670669 -1.6025587e-12 0)
(0.11670669 -2.557208e-13 0)
(0.11670669 1.0463076e-12 0)
(0.11670669 1.5873955e-12 0)
(0.11670669 2.2591393e-12 0)
(0.11670669 2.371663e-12 0)
(0.11670669 2.7511468e-12 0)
(0.11670669 2.7476566e-12 0)
(0.11670669 2.8882084e-12 0)
(0.11670669 2.4682415e-12 0)
(0.11670669 2.1783069e-12 0)
(0.11670669 1.8076235e-12 0)
(0.11670669 1.838092e-12 0)
(0.11670669 2.164737e-12 0)
(0.11670669 2.8984923e-12 0)
(0.11670669 3.657743e-12 0)
(0.11670669 4.2661474e-12 0)
(0.11670669 4.7690672e-12 0)
(0.11670669 4.8638935e-12 0)
(0.11670669 5.1276529e-12 0)
(0.11670669 4.6265057e-12 0)
(0.11670669 4.2753619e-12 0)
(0.11670669 2.9722891e-12 0)
(0.11670669 2.306261e-12 0)
(0.11670669 1.5045255e-12 0)
(0.11670669 1.725365e-12 0)
(0.11670669 1.7256912e-12 0)
(0.11670669 2.1808092e-12 0)
(0.11670669 2.028343e-12 0)
(0.11670669 2.4171577e-12 0)
(0.11670669 2.1248635e-12 0)
(0.11670669 2.5509722e-12 0)
(0.11670669 2.1518619e-12 0)
(0.11670669 2.5238007e-12 0)
(0.11670669 1.9745838e-12 0)
(0.11670669 2.3122851e-12 0)
(0.11670669 1.6422978e-12 0)
(0.11670669 1.9486727e-12 0)
(0.11670669 1.262016e-12 0)
(0.11670669 1.7378769e-12 0)
(0.11670669 1.2964518e-12 0)
(0.11670669 1.9563337e-12 0)
(0.11670669 1.7090894e-12 0)
(0.11670669 2.2920006e-12 0)
(0.11670669 1.9184094e-12 0)
(0.11670669 2.1463486e-12 0)
(0.11670669 1.5174968e-12 0)
(0.11670669 1.4299122e-12 0)
(0.11670669 7.8024752e-13 0)
(0.11670669 7.0040682e-13 0)
(0.11670669 3.2210002e-13 0)
(0.11670669 4.4857509e-13 0)
(0.11670669 4.1612921e-13 0)
(0.11670669 5.771613e-13 0)
(0.11670669 7.0599601e-13 0)
(0.11670669 9.0143298e-13 0)
(0.11670669 1.2946349e-12 0)
(0.11670669 1.4346221e-12 0)
(0.11670669 1.7637238e-12 0)
(0.11670669 1.4431824e-12 0)
(0.11670669 1.4800979e-12 0)
(0.11670669 8.9753012e-13 0)
(0.11670669 1.1502352e-12 0)
(0.11670669 7.9308427e-13 0)
(0.11670669 1.1767648e-12 0)
(0.11670669 4.0795432e-13 0)
(0.11670669 4.5440828e-13 0)
(0.11670669 -1.1216713e-12 0)
(0.11670669 -1.5837695e-12 0)
(0.11670669 -3.1700083e-12 0)
(0.11670669 -2.85279e-12 0)
(0.11670669 -3.3929203e-12 0)
(0.11670669 -2.3879435e-12 0)
(0.11670669 -2.5395217e-12 0)
(0.11670669 -1.9031937e-12 0)
(0.11670669 -2.4539958e-12 0)
(0.11670669 -1.1625355e-12 0)
(0.11670669 -8.4755585e-13 0)
(0.11670669 5.8040393e-13 0)
(0.11670669 4.7433177e-13 0)
(0.11670669 1.3673317e-12 0)
(0.11670669 8.7049665e-13 0)
(0.11670669 1.550447e-12 0)
(0.11670669 9.6779573e-13 0)
(0.11670669 1.5459583e-12 0)
(0.11670669 9.5698471e-13 0)
(0.11670669 1.518094e-12 0)
(0.11670669 9.3990659e-13 0)
(0.11670669 1.5073512e-12 0)
(0.11670669 9.9668782e-13 0)
(0.11670669 1.5983558e-12 0)
(0.11670669 1.1827329e-12 0)
(0.11670669 1.7960577e-12 0)
(0.11670669 1.5020986e-12 0)
(0.11670669 2.1893013e-12 0)
(0.11670669 2.0305067e-12 0)
(0.11670669 2.5035999e-12 0)
(0.11670669 2.1724303e-12 0)
(0.11670669 2.4201613e-12 0)
(0.11670669 2.1110237e-12 0)
(0.11670669 2.1765224e-12 0)
(0.11670669 1.8845531e-12 0)
(0.11670669 1.5578467e-12 0)
(0.11670669 8.1784727e-13 0)
(0.11670669 -2.4521807e-13 0)
(0.11670669 -8.7046161e-13 0)
(0.11670669 -1.3238534e-12 0)
(0.11670669 -5.0518027e-13 0)
(0.11670669 -1.2567739e-13 0)
(0.11670669 1.0961942e-12 0)
(0.11670669 1.0910085e-12 0)
(0.11670669 1.4931772e-12 0)
(0.11670669 1.0236056e-12 0)
(0.11670669 1.2857845e-12 0)
(0.11670669 7.789729e-13 0)
(0.11670669 9.7800799e-13 0)
(0.11670669 7.3706881e-13 0)
(0.11670669 9.6777798e-13 0)
(0.11670669 1.0075026e-12 0)
(0.11670669 1.0330259e-12 0)
(0.11670669 9.6835452e-13 0)
(0.11670669 6.1699063e-13 0)
(0.11670669 8.2244098e-13 0)
(0.11670669 8.0686335e-13 0)
(0.11670669 1.744807e-12 0)
(0.11670669 1.9488044e-12 0)
(0.11670669 2.4820163e-12 0)
(0.11670669 1.5037555e-12 0)
(0.11670669 1.2311076e-12 0)
(0.11670669 -4.9696534e-13 0)
(0.11670669 -1.1089568e-12 0)
(0.11670669 -2.8460617e-12 0)
(0.11670669 -2.9011289e-12 0)
(0.11670669 -3.3182585e-12 0)
(0.11670669 -1.7485375e-12 0)
(0.11670669 -5.4729444e-13 0)
(0.11670669 1.0341318e-12 0)
(0.11670669 1.3092746e-12 0)
(0.11670669 8.5396682e-13 0)
(0.11670669 -5.1429321e-13 0)
(0.11670669 -1.8645771e-12 0)
(0.11670669 -1.8392358e-12 0)
(0.11670669 -1.5028557e-12 0)
(0.11670669 -1.4133166e-13 0)
(0.11670669 -2.3145231e-13 0)
(0.11670669 5.3387213e-14 0)
(0.11670669 -8.8473235e-13 0)
(0.11670669 -7.0667518e-13 0)
(0.11670669 -2.0427677e-12 0)
(0.11670669 -2.0460728e-12 0)
(0.11670669 -3.3131435e-12 0)
(0.11670669 -2.6406257e-12 0)
(0.11670669 -2.9183258e-12 0)
(0.11670669 -8.9854365e-13 0)
(0.11670669 -2.9589432e-13 0)
(0.11670669 1.9664513e-12 0)
(0.11670669 2.4515494e-12 0)
(0.11670669 3.837981e-12 0)
(0.11670669 3.3905387e-12 0)
(0.11670669 2.9533941e-12 0)
(0.11670669 1.4935264e-12 0)
(0.11670669 4.1584847e-13 0)
(0.11670669 7.2695023e-14 0)
(0.11670669 6.3576624e-14 0)
(0.11670669 8.8941493e-13 0)
(0.11670669 1.0856078e-12 0)
(0.11670669 2.1323289e-12 0)
(0.11670669 1.6683186e-12 0)
(0.11670669 2.0658465e-12 0)
(0.11670669 1.1717919e-12 0)
(0.11670669 1.709981e-12 0)
(0.11670669 1.1025936e-12 0)
(0.11670669 1.9251729e-12 0)
(0.11670669 1.2978016e-12 0)
(0.11670669 1.7647585e-12 0)
(0.11670669 8.9955762e-13 0)
(0.11670669 1.3056478e-12 0)
(0.11670669 1.02613e-12 0)
(0.11670669 2.0089065e-12 0)
(0.11670669 2.1031469e-12 0)
(0.11670669 2.7636853e-12 0)
(0.11670669 2.4024536e-12 0)
(0.11670669 1.990677e-12 0)
(0.11670669 7.2360683e-13 0)
(0.11670669 -5.9666292e-13 0)
(0.11670669 -1.6113564e-12 0)
(0.11670669 -2.3951453e-12 0)
(0.11670669 -2.2047519e-12 0)
(0.11670669 -2.3818052e-12 0)
(0.11670669 -1.5960344e-12 0)
(0.11670669 -1.7374637e-12 0)
(0.11670669 -1.3210598e-12 0)
(0.11670669 -2.2322726e-12 0)
(0.11670669 -2.5174986e-12 0)
(0.11670669 -3.2601291e-12 0)
(0.11670669 -2.3333038e-12 0)
(0.11670669 -1.6811005e-12 0)
(0.11670669 1.5869953e-14 0)
(0.11670669 5.761419e-13 0)
(0.11670669 1.4878455e-12 0)
(0.11670669 1.4568354e-12 0)
(0.11670669 1.8563303e-12 0)
(0.11670669 1.6160892e-12 0)
(0.11670669 1.9137581e-12 0)
(0.11670669 1.6858841e-12 0)
(0.11670669 1.6954423e-12 0)
(0.11670669 9.8664574e-13 0)
(0.11670669 1.1957861e-12 0)
(0.11670669 1.7130654e-12 0)
(0.11670669 2.4426295e-12 0)
(0.11670669 1.0797934e-12 0)
(0.50390834 0.19019021 0)
(0.43847039 0.050431487 0)
(0.29767008 0.022055292 0)
(0.25944374 0.01078008 0)
(0.22598939 0.0055621276 0)
(0.21213187 0.003230793 0)
(0.20205719 0.0017732857 0)
(0.19716897 0.0010457324 0)
(0.19394744 0.00057678699 0)
(0.19230772 0.00033132681 0)
(0.19130242 0.00017832439 0)
(0.19079327 9.7723341e-05 0)
(0.19050201 4.9920094e-05 0)
(0.1903612 2.5323393e-05 0)
(0.19028762 1.1617e-05 0)
(0.19025609 4.9664727e-06 0)
(0.1902425 1.594927e-06 0)
(0.19023894 1.7282694e-07 0)
(0.19023899 -3.9987874e-07 0)
(0.19024063 -5.2226063e-07 0)
(0.19024241 -4.8456587e-07 0)
(0.19024402 -3.8445076e-07 0)
(0.19024524 -2.8453936e-07 0)
(0.19024615 -1.9907765e-07 0)
(0.19024677 -1.3476415e-07 0)
(0.19024719 -8.8378373e-08 0)
(0.19024746 -5.6686066e-08 0)
(0.19024763 -3.5536514e-08 0)
(0.19024774 -2.1876196e-08 0)
(0.1902478 -1.3208479e-08 0)
(0.19024784 -7.8361542e-09 0)
(0.19024787 -4.5570769e-09 0)
(0.19024788 -2.5967426e-09 0)
(0.19024789 -1.4467052e-09 0)
(0.19024789 -7.8759528e-10 0)
(0.19024789 -4.1639539e-10 0)
(0.1902479 -2.1182965e-10 0)
(0.1902479 -1.0055221e-10 0)
(0.1902479 -4.2068416e-11 0)
(0.1902479 -1.2870252e-11 0)
(0.1902479 -1.2373753e-13 0)
(0.1902479 4.5477558e-12 0)
(0.1902479 5.2975951e-12 0)
(0.1902479 4.6476145e-12 0)
(0.1902479 4.0770568e-12 0)
(0.1902479 3.835176e-12 0)
(0.1902479 3.9111268e-12 0)
(0.1902479 3.4774774e-12 0)
(0.1902479 3.0546831e-12 0)
(0.1902479 2.6488127e-12 0)
(0.1902479 3.0529158e-12 0)
(0.1902479 3.4269333e-12 0)
(0.1902479 4.4514022e-12 0)
(0.1902479 4.7916138e-12 0)
(0.1902479 4.9787194e-12 0)
(0.1902479 4.6604529e-12 0)
(0.1902479 5.1344152e-12 0)
(0.1902479 5.9233185e-12 0)
(0.1902479 6.4519484e-12 0)
(0.1902479 5.4684048e-12 0)
(0.1902479 2.4153257e-12 0)
(0.1902479 -1.0146489e-12 0)
(0.1902479 -3.8572308e-12 0)
(0.1902479 -5.6139693e-12 0)
(0.1902479 -6.3620792e-12 0)
(0.1902479 -6.5799316e-12 0)
(0.1902479 -6.2899819e-12 0)
(0.1902479 -5.7239976e-12 0)
(0.1902479 -4.9701204e-12 0)
(0.1902479 -4.3271705e-12 0)
(0.1902479 -4.060915e-12 0)
(0.1902479 -3.5438101e-12 0)
(0.1902479 -3.6714821e-12 0)
(0.1902479 -3.428621e-12 0)
(0.1902479 -3.7847599e-12 0)
(0.1902479 -3.5512027e-12 0)
(0.1902479 -3.8102683e-12 0)
(0.1902479 -3.4472989e-12 0)
(0.1902479 -3.6844816e-12 0)
(0.1902479 -3.3806458e-12 0)
(0.1902479 -3.6412972e-12 0)
(0.1902479 -3.2572074e-12 0)
(0.1902479 -3.3345997e-12 0)
(0.1902479 -2.9301998e-12 0)
(0.1902479 -3.5527568e-12 0)
(0.1902479 -3.8640585e-12 0)
(0.1902479 -4.7997144e-12 0)
(0.1902479 -4.6320412e-12 0)
(0.1902479 -3.8729721e-12 0)
(0.1902479 -1.8441816e-12 0)
(0.1902479 -5.109092e-14 0)
(0.1902479 1.6255874e-12 0)
(0.1902479 2.216559e-12 0)
(0.1902479 3.0791008e-12 0)
(0.1902479 3.2107152e-12 0)
(0.1902479 3.7722275e-12 0)
(0.1902479 3.7579744e-12 0)
(0.1902479 3.9616215e-12 0)
(0.1902479 3.3325198e-12 0)
(0.1902479 2.9869957e-12 0)
(0.1902479 2.5002131e-12 0)
(0.1902479 2.6825733e-12 0)
(0.1902479 3.1854528e-12 0)
(0.1902479 4.2504722e-12 0)
(0.1902479 5.2225876e-12 0)
(0.1902479 6.071074e-12 0)
(0.1902479 6.6337551e-12 0)
(0.1902479 6.8602616e-12 0)
(0.1902479 7.2089628e-12 0)
(0.1902479 6.6827431e-12 0)
(0.1902479 6.2144845e-12 0)
(0.1902479 4.500023e-12 0)
(0.1902479 3.5049389e-12 0)
(0.1902479 2.4218306e-12 0)
(0.1902479 2.5955084e-12 0)
(0.1902479 2.6303301e-12 0)
(0.1902479 3.1649066e-12 0)
(0.1902479 3.009969e-12 0)
(0.1902479 3.4684969e-12 0)
(0.1902479 3.1017223e-12 0)
(0.1902479 3.6170101e-12 0)
(0.1902479 3.100949e-12 0)
(0.1902479 3.558684e-12 0)
(0.1902479 2.8574233e-12 0)
(0.1902479 3.2725275e-12 0)
(0.1902479 2.4064701e-12 0)
(0.1902479 2.7699044e-12 0)
(0.1902479 1.8877795e-12 0)
(0.1902479 2.4969926e-12 0)
(0.1902479 1.9324814e-12 0)
(0.1902479 2.7636893e-12 0)
(0.1902479 2.4028956e-12 0)
(0.1902479 3.0945185e-12 0)
(0.1902479 2.533941e-12 0)
(0.1902479 2.7625746e-12 0)
(0.1902479 1.892947e-12 0)
(0.1902479 1.7400392e-12 0)
(0.1902479 8.6916621e-13 0)
(0.1902479 7.3567921e-13 0)
(0.1902479 2.1864281e-13 0)
(0.1902479 3.5722392e-13 0)
(0.1902479 2.9553827e-13 0)
(0.1902479 4.9395449e-13 0)
(0.1902479 6.7292909e-13 0)
(0.1902479 9.5615283e-13 0)
(0.1902479 1.5076848e-12 0)
(0.1902479 1.7277028e-12 0)
(0.1902479 2.1751892e-12 0)
(0.1902479 1.7487317e-12 0)
(0.1902479 1.7831545e-12 0)
(0.1902479 1.0141428e-12 0)
(0.1902479 1.3262921e-12 0)
(0.1902479 8.1228917e-13 0)
(0.1902479 1.1929434e-12 0)
(0.1902479 3.3977283e-14 0)
(0.1902479 -7.8256718e-14 0)
(0.1902479 -2.2832643e-12 0)
(0.1902479 -3.0297995e-12 0)
(0.1902479 -5.2030445e-12 0)
(0.1902479 -4.8216256e-12 0)
(0.1902479 -5.4397666e-12 0)
(0.1902479 -3.946663e-12 0)
(0.1902479 -3.8991335e-12 0)
(0.1902479 -2.8212997e-12 0)
(0.1902479 -3.3299449e-12 0)
(0.1902479 -1.5076873e-12 0)
(0.1902479 -1.0319138e-12 0)
(0.1902479 8.2863331e-13 0)
(0.1902479 6.5717505e-13 0)
(0.1902479 1.7985824e-12 0)
(0.1902479 1.1319458e-12 0)
(0.1902479 2.0306668e-12 0)
(0.1902479 1.278882e-12 0)
(0.1902479 2.0643868e-12 0)
(0.1902479 1.2946321e-12 0)
(0.1902479 2.0532754e-12 0)
(0.1902479 1.295024e-12 0)
(0.1902479 2.0666265e-12 0)
(0.1902479 1.4045866e-12 0)
(0.1902479 2.2288735e-12 0)
(0.1902479 1.7008005e-12 0)
(0.1902479 2.5529187e-12 0)
(0.1902479 2.1955798e-12 0)
(0.1902479 3.1423852e-12 0)
(0.1902479 2.9426418e-12 0)
(0.1902479 3.5872612e-12 0)
(0.1902479 3.1490748e-12 0)
(0.1902479 3.4915479e-12 0)
(0.1902479 3.074879e-12 0)
(0.1902479 3.1372757e-12 0)
(0.1902479 2.6994674e-12 0)
(0.1902479 2.2100561e-12 0)
(0.1902479 1.175895e-12 0)
(0.1902479 -2.1511296e-13 0)
(0.1902479 -9.7208832e-13 0)
(0.1902479 -1.4637053e-12 0)
(0.1902479 -2.8463811e-13 0)
(0.1902479 3.0316902e-13 0)
(0.1902479 1.9439134e-12 0)
(0.1902479 1.9162758e-12 0)
(0.1902479 2.3702842e-12 0)
(0.1902479 1.653806e-12 0)
(0.1902479 1.9105975e-12 0)
(0.1902479 1.1861825e-12 0)
(0.1902479 1.3842588e-12 0)
(0.1902479 1.0115335e-12 0)
(0.1902479 1.2372215e-12 0)
(0.1902479 1.2145046e-12 0)
(0.1902479 1.1978409e-12 0)
(0.1902479 1.0946404e-12 0)
(0.1902479 6.6304e-13 0)
(0.1902479 1.0131308e-12 0)
(0.1902479 1.1134048e-12 0)
(0.1902479 2.4467559e-12 0)
(0.1902479 2.7189165e-12 0)
(0.1902479 3.3279385e-12 0)
(0.1902479 1.8959353e-12 0)
(0.1902479 1.3974613e-12 0)
(0.1902479 -1.0121004e-12 0)
(0.1902479 -1.9501561e-12 0)
(0.1902479 -4.2989603e-12 0)
(0.1902479 -4.3459178e-12 0)
(0.1902479 -4.8091157e-12 0)
(0.1902479 -2.6778215e-12 0)
(0.1902479 -1.0361386e-12 0)
(0.1902479 1.0646923e-12 0)
(0.1902479 1.4739276e-12 0)
(0.1902479 9.5613851e-13 0)
(0.1902479 -7.3099544e-13 0)
(0.1902479 -2.3887506e-12 0)
(0.1902479 -2.2109227e-12 0)
(0.1902479 -1.6874359e-12 0)
(0.1902479 1.011087e-13 0)
(0.1902479 -8.1409365e-14 0)
(0.1902479 2.0790968e-13 0)
(0.1902479 -1.121677e-12 0)
(0.1902479 -1.0060826e-12 0)
(0.1902479 -2.8922178e-12 0)
(0.1902479 -2.9805552e-12 0)
(0.1902479 -4.6427693e-12 0)
(0.1902479 -3.6106136e-12 0)
(0.1902479 -3.7907328e-12 0)
(0.1902479 -9.6117281e-13 0)
(0.1902479 -3.0501883e-14 0)
(0.1902479 3.0768961e-12 0)
(0.1902479 3.7919886e-12 0)
(0.1902479 5.6076137e-12 0)
(0.1902479 4.9555701e-12 0)
(0.1902479 4.29818e-12 0)
(0.1902479 2.3027562e-12 0)
(0.1902479 8.4346672e-13 0)
(0.1902479 2.9325943e-13 0)
(0.1902479 1.6920886e-13 0)
(0.1902479 1.1292678e-12 0)
(0.1902479 1.3132963e-12 0)
(0.1902479 2.6522536e-12 0)
(0.1902479 2.0725889e-12 0)
(0.1902479 2.6247317e-12 0)
(0.1902479 1.4820078e-12 0)
(0.1902479 2.2660079e-12 0)
(0.1902479 1.5421981e-12 0)
(0.1902479 2.6901333e-12 0)
(0.1902479 1.9074303e-12 0)
(0.1902479 2.5764583e-12 0)
(0.1902479 1.4804972e-12 0)
(0.1902479 2.0512766e-12 0)
(0.1902479 1.6639932e-12 0)
(0.1902479 2.8803573e-12 0)
(0.1902479 2.8540651e-12 0)
(0.1902479 3.5256599e-12 0)
(0.1902479 2.8740025e-12 0)
(0.1902479 2.2050571e-12 0)
(0.1902479 5.0263765e-13 0)
(0.1902479 -1.1980802e-12 0)
(0.1902479 -2.4811097e-12 0)
(0.1902479 -3.4303662e-12 0)
(0.1902479 -3.0681387e-12 0)
(0.1902479 -3.1940121e-12 0)
(0.1902479 -2.079673e-12 0)
(0.1902479 -2.2330843e-12 0)
(0.1902479 -1.7325595e-12 0)
(0.1902479 -3.005909e-12 0)
(0.1902479 -3.428498e-12 0)
(0.1902479 -4.3826882e-12 0)
(0.1902479 -3.0238602e-12 0)
(0.1902479 -2.070216e-12 0)
(0.1902479 1.8956137e-13 0)
(0.1902479 9.0622481e-13 0)
(0.1902479 2.104658e-12 0)
(0.1902479 2.0715765e-12 0)
(0.1902479 2.6196788e-12 0)
(0.1902479 2.30776e-12 0)
(0.1902479 2.7073167e-12 0)
(0.1902479 2.3832221e-12 0)
(0.1902479 2.3628982e-12 0)
(0.1902479 1.424252e-12 0)
(0.1902479 1.7653277e-12 0)
(0.1902479 2.4974876e-12 0)
(0.1902479 3.3796884e-12 0)
(0.1902479 1.4255498e-12 0)
(0.59346672 0.21467329 0)
(0.54593347 0.075998386 0)
(0.39702192 0.039312273 0)
(0.34953973 0.019720538 0)
(0.30792187 0.010726725 0)
(0.28963523 0.0061583737 0)
(0.27651264 0.0034761843 0)
(0.26994405 0.0020291034 0)
(0.26565503 0.0011409861 0)
(0.26342423 0.00065140147 0)
(0.26206335 0.00035632904 0)
(0.26136077 0.00019487098 0)
(0.26095907 0.00010129255 0)
(0.26076048 5.1589959e-05 0)
(0.260656 2.4314644e-05 0)
(0.26060945 1.0642695e-05 0)
(0.26058866 3.7597496e-06 0)
(0.26058217 7.1121601e-07 0)
(0.26058122 -5.4266006e-07 0)
(0.26058278 -8.8402028e-07 0)
(0.2605848 -8.6421946e-07 0)
(0.26058673 -7.0518105e-07 0)
(0.26058825 -5.2942763e-07 0)
(0.26058939 -3.7467104e-07 0)
(0.26059018 -2.5543745e-07 0)
(0.26059072 -1.6862148e-07 0)
(0.26059108 -1.0867038e-07 0)
(0.2605913 -6.8455115e-08 0)
(0.26059144 -4.2307071e-08 0)
(0.26059153 -2.5649516e-08 0)
(0.26059159 -1.5275079e-08 0)
(0.26059162 -8.9234602e-09 0)
(0.26059163 -5.1106227e-09 0)
(0.26059165 -2.8633071e-09 0)
(0.26059165 -1.5665221e-09 0)
(0.26059165 -8.3206038e-10 0)
(0.26059166 -4.2547143e-10 0)
(0.26059166 -2.0460626e-10 0)
(0.26059166 -8.8870926e-11 0)
(0.26059166 -3.1316516e-11 0)
(0.26059166 -5.8488596e-12 0)
(0.26059166 3.9812659e-12 0)
(0.26059166 6.3983893e-12 0)
(0.26059166 6.2495051e-12 0)
(0.26059166 5.6875013e-12 0)
(0.26059166 5.0774122e-12 0)
(0.26059166 4.5803335e-12 0)
(0.26059166 3.7649673e-12 0)
(0.26059166 3.3042347e-12 0)
(0.26059166 3.0096227e-12 0)
(0.26059166 3.5288817e-12 0)
(0.26059166 3.7325158e-12 0)
(0.26059166 4.505953e-12 0)
(0.26059166 4.5590413e-12 0)
(0.26059166 4.760324e-12 0)
(0.26059166 4.5849348e-12 0)
(0.26059166 5.4020746e-12 0)
(0.26059166 6.0998943e-12 0)
(0.26059166 6.2586732e-12 0)
(0.26059166 4.5935515e-12 0)
(0.26059166 1.1374594e-12 0)
(0.26059166 -2.1387183e-12 0)
(0.26059166 -4.3293404e-12 0)
(0.26059166 -5.4714949e-12 0)
(0.26059166 -5.6423441e-12 0)
(0.26059166 -5.7872406e-12 0)
(0.26059166 -5.4560396e-12 0)
(0.26059166 -5.1628978e-12 0)
(0.26059166 -4.6643909e-12 0)
(0.26059166 -4.2423256e-12 0)
(0.26059166 -4.0847523e-12 0)
(0.26059166 -3.5792526e-12 0)
(0.26059166 -3.6744495e-12 0)
(0.26059166 -3.4031156e-12 0)
(0.26059166 -3.7216195e-12 0)
(0.26059166 -3.4874116e-12 0)
(0.26059166 -3.7097759e-12 0)
(0.26059166 -3.35255e-12 0)
(0.26059166 -3.5733324e-12 0)
(0.26059166 -3.2612625e-12 0)
(0.26059166 -3.47149e-12 0)
(0.26059166 -3.0148292e-12 0)
(0.26059166 -3.1233366e-12 0)
(0.26059166 -2.7753269e-12 0)
(0.26059166 -3.4982041e-12 0)
(0.26059166 -3.7515055e-12 0)
(0.26059166 -4.4768079e-12 0)
(0.26059166 -3.915945e-12 0)
(0.26059166 -2.871806e-12 0)
(0.26059166 -6.5787413e-13 0)
(0.26059166 9.5169365e-13 0)
(0.26059166 2.3030173e-12 0)
(0.26059166 2.4000099e-12 0)
(0.26059166 3.0836721e-12 0)
(0.26059166 3.1255679e-12 0)