/*--------------------------------*- C++ -*----------------------------------*\
| =========                 |                                                 |
| \\      /  F ield         | OpenFOAM: The Open Source CFD Toolbox           |
|  \\    /   O peration     | Version:  2206                                  |
|   \\  /    A nd           | Website:  www.openfoam.com                      |
|    \\/     M anipulation  |                                                 |
\*---------------------------------------------------------------------------*/
FoamFile
{
    version     2.0;
    format      ascii;
    arch        "LSB;label=32;scalar=64";
    class       surfaceScalarField;
    location    "24";
    object      phi;
}
// * * * * * * * * * * * * * * * * * * * * * * * * * * * * * * * * * * * * * //

dimensions      [0 3 -1 0 0 0 0];

oriented        oriented;

internalField   nonuniform List<scalar> 
29650
(
6.0867648e-05
0.00020579915
3.271817e-05
2.814948e-05
2.4599021e-05
8.1191493e-06
2.0417849e-05
4.1811725e-06
1.8552178e-05
1.8656701e-06
1.73737e-05
1.1784767e-06
1.6781661e-05
5.9203764e-07
1.6412314e-05
3.6934532e-07
1.622082e-05
1.914933e-07
1.6106686e-05
1.1413455e-07
1.6048258e-05
5.8428117e-08
1.6015474e-05
3.2784546e-08
1.5999542e-05
1.5932974e-08
1.5991376e-05
8.1663081e-09
1.5987889e-05
3.4875521e-09
1.598644e-05
1.4489441e-09
1.5986091e-05
3.4989173e-10
1.5986138e-05
-4.7854883e-11
1.598635e-05
-2.1115435e-10
1.5986569e-05
-2.1998953e-10
1.5986762e-05
-1.9237885e-10
1.5986908e-05
-1.4621545e-10
1.5987014e-05
-1.0623992e-10
1.5987087e-05
-7.2877044e-11
1.5987136e-05
-4.8798733e-11
1.5987167e-05
-3.1591069e-11
1.5987187e-05
-2.0090683e-11
1.59872e-05
-1.2469238e-11
1.5987208e-05
-7.6167693e-12
1.5987212e-05
-4.5559449e-12
1.5987215e-05
-2.6802558e-12
1.5987216e-05
-1.5440287e-12
1.5987217e-05
-8.7239227e-13
1.5987218e-05
-4.8111808e-13
1.5987218e-05
-2.5821741e-13
1.5987218e-05
-1.3374775e-13
1.5987218e-05
-6.5924708e-14
1.5987218e-05
-3.0480063e-14
1.5987218e-05
-1.2496605e-14
1.5987218e-05
-4.0866518e-15
1.5987218e-05
-3.2349621e-16
1.5987218e-05
9.5173596e-16
1.5987218e-05
1.2449739e-15
1.5987218e-05
1.0379378e-15
1.5987218e-05
7.6951458e-16
1.5987218e-05
5.324911e-16
1.5987218e-05
2.9386052e-16
1.5987218e-05
1.2072628e-16
1.5987218e-05
-7.8071531e-17
1.5987218e-05
-1.4398996e-16
1.5987218e-05
-2.7425027e-16
1.5987218e-05
-1.9808961e-16
1.5987218e-05
-1.4809123e-16
1.5987218e-05
4.9559314e-17
1.5987218e-05
1.2342402e-16
1.5987218e-05
1.5790851e-16
1.5987218e-05
1.2703016e-16
1.5987218e-05
1.1023314e-16
1.5987218e-05
1.129268e-17
1.5987218e-05
1.319326e-16
1.5987218e-05
1.0635282e-16
1.5987218e-05
2.6031607e-16
1.5987218e-05
1.7943302e-16
1.5987218e-05
2.8051246e-16
1.5987218e-05
1.6872107e-16
1.5987218e-05
2.4154313e-16
1.5987218e-05
1.651696e-16
1.5987218e-05
2.2929483e-16
1.5987218e-05
1.9677259e-16
1.5987218e-05
2.5978257e-16
1.5987218e-05
8.5335686e-17
1.5987218e-05
1.6912993e-16
1.5987218e-05
1.9831819e-17
1.5987218e-05
1.4590276e-16
1.5987218e-05
1.8772536e-17
1.5987218e-05
1.5107881e-16
1.5987218e-05
2.938858e-17
1.5987218e-05
1.4725355e-16
1.5987218e-05
1.6565627e-17
1.5987218e-05
1.2934591e-16
1.5987218e-05
2.0475333e-17
1.5987218e-05
1.6638605e-16
1.5987218e-05
7.184145e-17
1.5987218e-05
1.8142806e-16
1.5987218e-05
2.4346312e-18
1.5987218e-05
-5.5505604e-19
1.5987218e-05
-2.3363359e-16
1.5987218e-05
-1.6824507e-16
1.5987218e-05
-3.1567315e-16
1.5987218e-05
-1.8562421e-16
1.5987218e-05
-3.1663047e-16
1.5987218e-05
-1.8496936e-16
1.5987218e-05
-3.1915135e-16
1.5987218e-05
-1.7599146e-16
1.5987218e-05
-3.0204639e-16
1.5987218e-05
-1.3690864e-16
1.5987218e-05
-2.3661016e-16
1.5987218e-05
-4.0789296e-17
1.5987218e-05
-1.5079938e-16
1.5987218e-05
-2.5664114e-17
1.5987218e-05
-1.9003213e-16
1.5987218e-05
-9.7348399e-17
1.5987218e-05
-2.0770083e-16
1.5987218e-05
-1.6969953e-17
1.5987218e-05
-2.7637354e-17
1.5987218e-05
7.5430568e-17
1.5987218e-05
-1.2092133e-16
1.5987218e-05
-1.8281736e-16
1.5987218e-05
-4.2007431e-16
1.5987218e-05
-3.6386316e-16
1.5987218e-05
-4.2569338e-16
1.5987218e-05
-2.1532871e-16
1.5987218e-05
-1.7646172e-16
1.5987218e-05
2.8716953e-18
1.5987218e-05
-1.4994373e-16
1.5987218e-05
-3.6558512e-17
1.5987218e-05
-1.8327838e-16
1.5987218e-05
-5.8300456e-17
1.5987218e-05
-1.6909511e-16
1.5987218e-05
-7.5152974e-17
1.5987218e-05
-1.9549547e-16
1.5987218e-05
-9.0771509e-17
1.5987218e-05
-1.384276e-16
1.5987218e-05
5.7370566e-17
1.5987218e-05
9.8019173e-17
1.5987218e-05
2.6554019e-16
1.5987218e-05
2.545696e-16
1.5987218e-05
3.2973764e-16
1.5987218e-05
2.9711812e-16
1.5987218e-05
3.4717887e-16
1.5987218e-05
3.2560525e-16
1.5987218e-05
3.5664745e-16
1.5987218e-05
3.4117576e-16
1.5987218e-05
3.522794e-16
1.5987218e-05
3.4458087e-16
1.5987218e-05
3.433528e-16
1.5987218e-05
3.4710395e-16
1.5987218e-05
3.3599826e-16
1.5987218e-05
3.5171435e-16
1.5987218e-05
3.2964915e-16
1.5987218e-05
3.5444316e-16
1.5987218e-05
3.2017307e-16
1.5987218e-05
3.5370191e-16
1.5987218e-05
3.068766e-16
1.5987218e-05
3.4817689e-16
1.5987218e-05
2.9042527e-16
1.5987218e-05
3.4353556e-16
1.5987218e-05
2.7837056e-16
1.5987218e-05
3.4187114e-16
1.5987218e-05
2.5655816e-16
1.5987218e-05
3.2010809e-16
1.5987218e-05
2.3880449e-16
1.5987218e-05
3.4650739e-16
1.5987218e-05
3.0451401e-16
1.5987218e-05
4.242636e-16
1.5987218e-05
3.0097645e-16
1.5987218e-05
3.4258538e-16
1.5987218e-05
1.4341351e-16
1.5987218e-05
1.6825132e-16
1.5987218e-05
1.3022877e-17
1.5987218e-05
3.233369e-17
1.5987218e-05
-1.3877961e-16
1.5987218e-05
-1.7020562e-16
1.5987218e-05
-2.9952205e-16
1.5987218e-05
-1.883622e-16
1.5987218e-05
-2.6830482e-16
1.5987218e-05
-1.6523399e-16
1.5987218e-05
-2.5214893e-16
1.5987218e-05
-1.5737109e-16
1.5987218e-05
-2.4610364e-16
1.5987218e-05
-1.5245623e-16
1.5987218e-05
-2.4184042e-16
1.5987218e-05
-1.4962176e-16
1.5987218e-05
-2.3810465e-16
1.5987218e-05
-1.4401386e-16
1.5987218e-05
-2.3000066e-16
1.5987218e-05
-1.2970678e-16
1.5987218e-05
-2.1188849e-16
1.5987218e-05
-1.1290098e-16
1.5987218e-05
-2.0026572e-16
1.5987218e-05
-1.2098036e-16
1.5987218e-05
-2.0920856e-16
1.5987218e-05
-1.3606225e-16
1.5987218e-05
-2.251446e-16
1.5987218e-05
-1.6057501e-16
1.5987218e-05
-2.4630488e-16
1.5987218e-05
-1.7584139e-16
1.5987218e-05
-2.5656484e-16
1.5987218e-05
-1.9471825e-16
1.5987218e-05
-2.8124459e-16
1.5987218e-05
-2.266601e-16
1.5987218e-05
-3.1597193e-16
1.5987218e-05
-2.7452539e-16
1.5987218e-05
-3.5585819e-16
1.5987218e-05
-3.2382053e-16
1.5987218e-05
-3.8254633e-16
1.5987218e-05
-3.6933972e-16
1.5987218e-05
-3.9769076e-16
1.5987218e-05
-4.1401004e-16
1.5987218e-05
-4.2041923e-16
1.5987218e-05
-4.207949e-16
1.5987218e-05
-3.3233575e-16
1.5987218e-05
-2.4703031e-16
1.5987218e-05
-5.4672708e-17
1.5987218e-05
4.2761077e-17
1.5987218e-05
1.6579543e-16
1.5987218e-05
1.7330642e-16
1.5987218e-05
2.4037893e-16
1.5987218e-05
2.5743857e-16
1.5987218e-05
3.1407843e-16
1.5987218e-05
2.9272164e-16
1.5987218e-05
2.4923619e-16
1.5987218e-05
1.3736992e-16
1.5987218e-05
2.5237703e-17
1.5987218e-05
-4.3052435e-17
1.5987218e-05
-7.9834788e-17
1.5987218e-05
-8.0708703e-17
1.5987218e-05
-1.1553964e-16
1.5987218e-05
-1.3618385e-16
1.5987218e-05
-1.6629264e-16
1.5987218e-05
-1.1406091e-16
1.5987218e-05
-4.1736916e-17
1.5987218e-05
8.5267759e-17
1.5987218e-05
1.5027392e-16
1.5987218e-05
2.0742535e-16
1.5987218e-05
1.8153685e-16
1.5987218e-05
2.0786234e-16
1.5987218e-05
1.5594879e-16
1.5987218e-05
1.8979374e-16
1.5987218e-05
1.504035e-16
1.5987218e-05
2.1957178e-16
1.5987218e-05
1.9052612e-16
1.5987218e-05
2.3344379e-16
1.5987218e-05
1.0149466e-16
1.5987218e-05
5.390311e-17
1.5987218e-05
-1.0331172e-16
1.5987218e-05
-1.2991913e-16
1.5987218e-05
-2.2505275e-16
1.5987218e-05
-2.2820348e-16
1.5987218e-05
-2.9004668e-16
1.5987218e-05
-2.4761098e-16
1.5987218e-05
-2.1612229e-16
1.5987218e-05
-9.651972e-17
1.5987218e-05
-2.9861147e-17
1.5987218e-05
4.8091636e-17
1.5987218e-05
4.2067605e-17
1.5987218e-05
6.1720936e-17
1.5987218e-05
7.5354094e-17
1.5987218e-05
1.1170172e-16
1.5987218e-05
1.5459234e-16
1.5987218e-05
1.5530883e-16
1.5987218e-05
1.1530082e-16
1.5987218e-05
1.7840109e-17
1.5987218e-05
-6.2530568e-17
1.5987218e-05
-1.4763817e-16
1.5987218e-05
-1.6186489e-16
1.5987218e-05
-1.9142066e-16
1.5987218e-05
-1.9082269e-16
1.5987218e-05
-2.1480899e-16
1.5987218e-05
-2.1828114e-16
1.5987218e-05
-2.3942963e-16
1.5987218e-05
-2.3310387e-16
1.5987218e-05
-2.4094924e-16
1.5987218e-05
-2.2443061e-16
1.5987218e-05
-2.5058147e-16
1.5987218e-05
-2.6703045e-16
1.5987218e-05
-3.0539177e-16
1.5987218e-05
-2.7255628e-16
1.5987218e-05
-2.2569193e-16
1.5987218e-05
-1.1618555e-16
1.5987218e-05
-5.4830891e-17
1.5987218e-05
4.7863898e-17
1.5987218e-05
7.8641319e-17
1.5987218e-05
1.585823e-16
1.5987218e-05
1.53607e-16
1.5987218e-05
1.432821e-16
1.5987218e-05
3.1241173e-17
1.5987218e-05
-2.6071753e-17
1.5987218e-05
-1.2295961e-16
1.5987218e-05
-1.133464e-16
1.5987218e-05
-1.6163102e-16
1.5987218e-05
-1.3214578e-16
1.5987218e-05
-1.7552208e-16
1.5987218e-05
-1.4569816e-16
1.5987218e-05
-1.865417e-16
1.5987218e-05
-1.6036458e-16
1.5987218e-05
-2.0305003e-16
1.5987218e-05
-1.6643517e-16
1.5987218e-05
-2.0572686e-16
1.5987218e-05
-1.6368489e-16
1.5987218e-05
-2.0376771e-16
1.5987218e-05
-1.6943197e-16
1.5987218e-05
-2.1364597e-16
1.5987218e-05
-1.6777223e-16
1.5987218e-05
-1.9422185e-16
1.5987218e-05
-1.627432e-16
1.5987218e-05
-2.4536032e-16
1.5987218e-05
-2.2409469e-16
1.5987218e-05
-1.982651e-16
-5.0151624e-17
0.00014027132
0.00033219463
9.2549244e-05
7.5871556e-05
7.0338073e-05
3.033032e-05
5.9620314e-05
1.489893e-05
5.4019642e-05
7.4663399e-06
5.0795344e-05
4.4027733e-06
4.901105e-05
2.3763291e-06
4.7964745e-05
1.4156474e-06
4.7384384e-05
7.7185161e-07
4.7052233e-05
4.4628358e-07
4.6872682e-05
2.3797873e-07
4.677453e-05
1.3093623e-07
4.6724187e-05
6.6277153e-08
4.6698685e-05
3.3668649e-08
4.6686924e-05
1.5248703e-08
4.6681893e-05
6.481393e-09
4.6680252e-05
1.9909936e-09
4.6680058e-05
1.4614132e-10
4.6680445e-05
-5.9784337e-10
4.6680961e-05
-7.3658831e-10
4.6681443e-05
-6.7386374e-10
4.6681826e-05
-5.2961372e-10
4.668211e-05
-3.903371e-10
4.6682309e-05
-2.7189793e-10
4.6682444e-05
-1.8353407e-10
4.6682532e-05
-1.1996258e-10
4.6682589e-05
-7.675116e-11
4.6682624e-05
-4.7983447e-11
4.6682646e-05
-2.9468912e-11
4.6682659e-05
-1.7742839e-11
4.6682667e-05
-1.0497208e-11
4.6682672e-05
-6.088576e-12
4.6682674e-05
-3.4631405e-12
4.6682676e-05
-1.9254483e-12
4.6682676e-05
-1.0432108e-12
4.6682677e-05
-5.4709479e-13
4.6682677e-05
-2.7437607e-13
4.6682677e-05
-1.2976184e-13
4.6682677e-05
-5.5507602e-14
4.6682677e-05
-1.9695681e-14
4.6682677e-05
-3.3394723e-15
4.6682677e-05
2.8883961e-15
4.6682677e-05
4.7217142e-15
4.6682677e-05
4.4208837e-15
4.6682677e-05
3.5396741e-15
4.6682677e-05
2.5306355e-15
4.6682677e-05
1.4574942e-15
4.6682677e-05
7.5118145e-16
4.6682677e-05
1.9125962e-16
4.6682677e-05
-7.8716674e-17
4.6682677e-05
-3.7837847e-16
4.6682677e-05
-2.7928073e-16
4.6682677e-05
-1.1866516e-16
4.6682677e-05
3.7260059e-16
4.6682677e-05
5.0869908e-16
4.6682677e-05
6.3615686e-16
4.6682677e-05
5.0820736e-16
4.6682677e-05
4.4700569e-16
4.6682677e-05
2.128144e-16
4.6682677e-05
3.722026e-16
4.6682677e-05
3.4687556e-16
4.6682677e-05
6.5248754e-16
4.6682677e-05
4.9538214e-16
4.6682677e-05
6.6362504e-16
4.6682677e-05
3.9006661e-16
4.6682677e-05
5.2904311e-16
4.6682677e-05
3.6813867e-16
4.6682677e-05
5.4737551e-16
4.6682677e-05
4.8742395e-16
4.6682677e-05
5.8136923e-16
4.6682677e-05
2.9406859e-16
4.6682677e-05
3.6416962e-16
4.6682677e-05
1.2521951e-16
4.6682677e-05
2.6341613e-16
4.6682677e-05
8.7544102e-17
4.6682677e-05
2.5087659e-16
4.6682677e-05
1.1484275e-16
4.6682677e-05
2.3933361e-16
4.6682677e-05
8.2322731e-17
4.6682677e-05
1.7823936e-16
4.6682677e-05
1.1169336e-16
4.6682677e-05
2.9197019e-16
4.6682677e-05
2.4692774e-16
4.6682677e-05
2.8860337e-16
4.6682677e-05
-9.8784786e-18
4.6682677e-05
-2.1946554e-16
4.6682677e-05
-5.4288315e-16
4.6682677e-05
-5.7034989e-16
4.6682677e-05
-6.2024552e-16
4.6682677e-05
-5.0212394e-16
4.6682677e-05
-5.4294431e-16
4.6682677e-05
-4.6364244e-16
4.6682677e-05
-5.4300489e-16
4.6682677e-05
-4.6386405e-16
4.6682677e-05
-5.3898042e-16
4.6682677e-05
-4.140952e-16
4.6682677e-05
-3.9068348e-16
4.6682677e-05
-1.8805059e-16
4.6682677e-05
-2.1295697e-16
4.6682677e-05
-1.9992367e-16
4.6682677e-05
-3.7547253e-16
4.6682677e-05
-4.0176243e-16
4.6682677e-05
-3.2805775e-16
4.6682677e-05
-5.4895949e-17
4.6682677e-05
2.0159798e-16
4.6682677e-05
2.2592372e-16
4.6682677e-05
-1.1081673e-16
4.6682677e-05
-4.8473168e-16
4.6682677e-05
-8.4528816e-16
4.6682677e-05
-8.7367401e-16
4.6682677e-05
-8.5736417e-16
4.6682677e-05
-5.2434321e-16
4.6682677e-05
-3.5358354e-16
4.6682677e-05
-1.5542048e-16
4.6682677e-05
-2.2458881e-16
4.6682677e-05
-2.0324665e-16
4.6682677e-05
-2.7828239e-16
4.6682677e-05
-1.928324e-16
4.6682677e-05
-2.5515778e-16
4.6682677e-05
-2.2493071e-16
4.6682677e-05
-3.5011817e-16
4.6682677e-05
-2.6499463e-16
4.6682677e-05
-1.7209495e-16
4.6682677e-05
1.4736114e-16
4.6682677e-05
3.7705891e-16
4.6682677e-05
6.0746537e-16
4.6682677e-05
6.1471088e-16
4.6682677e-05
6.4948484e-16
4.6682677e-05
6.1281917e-16
4.6682677e-05
6.3561989e-16
4.6682677e-05
6.40548e-16
4.6682677e-05
6.5682632e-16
4.6682677e-05
6.7165357e-16
4.6682677e-05
6.6068797e-16
4.6682677e-05
6.7639414e-16
4.6682677e-05
6.4800882e-16
4.6682677e-05
6.7516131e-16
4.6682677e-05
6.3837194e-16
4.6682677e-05
6.8046897e-16
4.6682677e-05
6.3294695e-16
4.6682677e-05
6.8626785e-16
4.6682677e-05
6.2359594e-16
4.6682677e-05
6.8690777e-16
4.6682677e-05
6.0532399e-16
4.6682677e-05
6.7625304e-16
4.6682677e-05
5.7815647e-16
4.6682677e-05
6.6943729e-16
4.6682677e-05
5.6377413e-16
4.6682677e-05
6.6199405e-16
4.6682677e-05
5.1611807e-16
4.6682677e-05
5.974899e-16
4.6682677e-05
4.6144744e-16
4.6682677e-05
6.8474634e-16
4.6682677e-05
6.6226841e-16
4.6682677e-05
8.547051e-16
4.6682677e-05
6.1422431e-16
4.6682677e-05
5.5211007e-16
4.6682677e-05
1.664818e-16
4.6682677e-05
1.7557201e-16
4.6682677e-05
-4.4760626e-17
4.6682677e-05
1.9042447e-17
4.6682677e-05
-2.351201e-16
4.6682677e-05
-3.0033807e-16
4.6682677e-05
-5.3376858e-16
4.6682677e-05
-3.7164963e-16
4.6682677e-05
-5.4230297e-16
4.6682677e-05
-3.6977875e-16
4.6682677e-05
-5.3224151e-16
4.6682677e-05
-3.6402324e-16
4.6682677e-05
-5.2093743e-16
4.6682677e-05
-3.5380165e-16
4.6682677e-05
-5.1062392e-16
4.6682677e-05
-3.4599235e-16
4.6682677e-05
-5.0262761e-16
4.6682677e-05
-3.3572366e-16
4.6682677e-05
-4.8688037e-16
4.6682677e-05
-3.1167492e-16
4.6682677e-05
-4.5353275e-16
4.6682677e-05
-2.8491252e-16
4.6682677e-05
-4.3741141e-16
4.6682677e-05
-2.9932418e-16
4.6682677e-05
-4.5651188e-16
4.6682677e-05
-3.2320965e-16
4.6682677e-05
-4.8934115e-16
4.6682677e-05
-3.6870588e-16
4.6682677e-05
-5.3008916e-16
4.6682677e-05
-3.9510224e-16
4.6682677e-05
-5.5022098e-16
4.6682677e-05
-4.399663e-16
4.6682677e-05
-6.0375314e-16
4.6682677e-05
-5.1080295e-16
4.6682677e-05
-6.6554869e-16
4.6682677e-05
-5.9917742e-16
4.6682677e-05
-7.3131936e-16
4.6682677e-05
-6.8422198e-16
4.6682677e-05
-7.6516111e-16
4.6682677e-05
-7.3172322e-16
4.6682677e-05
-7.5073533e-16
4.6682677e-05
-8.0404846e-16
4.6682677e-05
-8.1508571e-16
4.6682677e-05
-8.3543543e-16
4.6682677e-05
-6.1800372e-16
4.6682677e-05
-3.8908902e-16
4.6682677e-05
5.5751244e-17
4.6682677e-05
2.4275719e-16
4.6682677e-05
4.5858194e-16
4.6682677e-05
4.0629025e-16
4.6682677e-05
5.1343435e-16
4.6682677e-05
5.4856013e-16
4.6682677e-05
6.5683555e-16
4.6682677e-05
5.97548e-16
4.6682677e-05
4.3626317e-16
4.6682677e-05
1.5988199e-16
4.6682677e-05
-9.8222247e-17
4.6682677e-05
-2.2145916e-16
4.6682677e-05
-2.3012456e-16
4.6682677e-05
-2.0869451e-16
4.6682677e-05
-2.6487686e-16
4.6682677e-05
-3.5106781e-16
4.6682677e-05
-4.0473981e-16
4.6682677e-05
-2.8686796e-16
4.6682677e-05
-7.4075485e-17
4.6682677e-05
2.412312e-16
4.6682677e-05
3.8785615e-16
4.6682677e-05
4.8093643e-16
4.6682677e-05
4.1061321e-16
4.6682677e-05
4.2927178e-16
4.6682677e-05
3.2630197e-16
4.6682677e-05
3.7359032e-16
4.6682677e-05
3.3383273e-16
4.6682677e-05
4.9629391e-16
4.6682677e-05
4.9694208e-16
4.6682677e-05
5.0967005e-16
4.6682677e-05
2.4164838e-16
4.6682677e-05
1.715307e-17
4.6682677e-05
-2.8060157e-16
4.6682677e-05
-3.4418281e-16
4.6682677e-05
-5.011992e-16
4.6682677e-05
-5.0957463e-16
4.6682677e-05
-6.0768992e-16
4.6682677e-05
-4.555316e-16
4.6682677e-05
-3.3514998e-16
4.6682677e-05
-3.1595742e-17
4.6682677e-05
1.2548735e-16
4.6682677e-05
2.3071365e-16
4.6682677e-05
1.9771326e-16
4.6682677e-05
1.8759251e-16
4.6682677e-05
2.304754e-16
4.6682677e-05
3.2713019e-16
4.6682677e-05
4.2907293e-16
4.6682677e-05
3.9639188e-16
4.6682677e-05
2.6345938e-16
4.6682677e-05
-1.2966059e-17
4.6682677e-05
-2.0932273e-16
4.6682677e-05
-3.5728433e-16
4.6682677e-05
-3.5740544e-16
4.6682677e-05
-3.8149059e-16
4.6682677e-05
-3.5946115e-16
4.6682677e-05
-4.0495217e-16
4.6682677e-05
-4.1212492e-16
4.6682677e-05
-4.6691634e-16
4.6682677e-05
-4.5292022e-16
4.6682677e-05
-4.5308556e-16
4.6682677e-05
-4.1906018e-16
4.6682677e-05
-4.8124486e-16
4.6682677e-05
-5.3971938e-16
4.6682677e-05
-6.1232248e-16
4.6682677e-05
-5.1588254e-16
4.6682677e-05
-3.4608885e-16
4.6682677e-05
-9.4392099e-17
4.6682677e-05
7.1922068e-17
4.6682677e-05
2.3530528e-16
4.6682677e-05
3.183029e-16
4.6682677e-05
4.0373353e-16
4.6682677e-05
3.2736064e-16
4.6682677e-05
1.9673648e-16
4.6682677e-05
-9.7993583e-17
4.6682677e-05
-2.5006706e-16
4.6682677e-05
-3.8840166e-16
4.6682677e-05
-3.5451426e-16
4.6682677e-05
-3.7946004e-16
4.6682677e-05
-3.2742345e-16
4.6682677e-05
-3.7665244e-16
4.6682677e-05
-3.414518e-16
4.6682677e-05
-4.1141549e-16
4.6682677e-05
-3.7787289e-16
4.6682677e-05
-4.4426037e-16
4.6682677e-05
-3.9393296e-16
4.6682677e-05
-4.3946213e-16
4.6682677e-05
-3.7357025e-16
4.6682677e-05
-4.2628613e-16
4.6682677e-05
-3.8339754e-16
4.6682677e-05
-4.5254359e-16
4.6682677e-05
-3.7419987e-16
4.6682677e-05
-3.8314782e-16
4.6682677e-05
-3.4496121e-16
4.6682677e-05
-5.7180588e-16
4.6682677e-05
-5.7277946e-16
4.6682677e-05
-3.4722294e-16
4.8569636e-17
0.00019469214
0.00040416929
0.00014360962
0.00012695408
0.00011230147
6.1638463e-05
9.6619294e-05
3.058111e-05
8.7762221e-05
1.6323413e-05
8.2755406e-05
9.4095883e-06
7.9871701e-05
5.2600341e-06
7.8206034e-05
3.0813154e-06
7.7256668e-05
1.7212171e-06
7.6718195e-05
9.8475712e-07
7.6420462e-05
5.3571075e-07
7.6258218e-05
2.9318048e-07
7.6172993e-05
1.5150217e-07
7.61296e-05
7.7061611e-08
7.6108851e-05
3.5997441e-08
7.6099695e-05
1.5636994e-08
7.6096324e-05
5.3619171e-09
7.6095587e-05
8.8301837e-10
7.6095937e-05
-9.4698922e-10
7.6096611e-05
-1.4111404e-09
7.609729e-05
-1.3531634e-09
7.6097854e-05
-1.0930768e-09
7.609828e-05
-8.1648059e-10
7.6098584e-05
-5.7541115e-10
7.6098791e-05
-3.9118541e-10
7.6098929e-05
-2.5752022e-10
7.6099018e-05
-1.6559964e-10
7.6099074e-05
-1.0408634e-10
7.6099108e-05
-6.420148e-11
7.609913e-05
-3.8839325e-11
7.6099142e-05
-2.3080451e-11
7.609915e-05
-1.3454714e-11
7.6099154e-05
-7.692158e-12
7.6099156e-05
-4.3019106e-12
7.6099157e-05
-2.3464167e-12
7.6099158e-05
-1.241196e-12
7.6099158e-05
-6.304665e-13
7.6099159e-05
-3.0334527e-13
7.6099159e-05
-1.3355846e-13
7.6099159e-05
-5.0088885e-14
7.6099159e-05
-1.1298044e-14
7.6099159e-05
4.3331035e-15
7.6099159e-05
9.3770244e-15
7.6099159e-05
9.43315e-15
7.6099159e-05
7.8356435e-15
7.6099159e-05
5.8612645e-15
7.6099159e-05
3.9255275e-15
7.6099159e-05
2.5620151e-15
7.6099159e-05
1.4632389e-15
7.6099159e-05
9.3908489e-16
7.6099159e-05
3.2149695e-16
7.6099159e-05
3.409522e-16
7.6099159e-05
2.4046707e-16
7.6099159e-05
6.600135e-16
7.6099159e-05
6.1670698e-16
7.6099159e-05
7.3171497e-16
7.6099159e-05
5.2898517e-16
7.6099159e-05
5.4846868e-16
7.6099159e-05
2.2182073e-16
7.6099159e-05
5.1343446e-16
7.6099159e-05
3.5926543e-16
7.6099159e-05
7.5882671e-16
7.6099159e-05
4.6442359e-16
7.6099159e-05
7.035707e-16
7.6099159e-05
2.8708781e-16
7.6099159e-05
4.7009153e-16
7.6099159e-05
1.9428532e-16
7.6099159e-05
4.2509385e-16
7.6099159e-05
2.9634616e-16
7.6099159e-05
4.7360793e-16
7.6099159e-05
8.9453884e-17
7.6099159e-05
2.5845182e-16
7.6099159e-05
-8.4959107e-17
7.6099159e-05
1.3723341e-16
7.6099159e-05
-1.4078235e-16
7.6099159e-05
9.6258337e-17
7.6099159e-05
-1.3227871e-16
7.6099159e-05
6.7587045e-17
7.6099159e-05
-1.6188553e-16
7.6099159e-05
1.7202606e-17
7.6099159e-05
-1.291732e-16
7.6099159e-05
1.1528941e-16
7.6099159e-05
-1.0652795e-17
7.6099159e-05
9.6236689e-17
7.6099159e-05
-2.2837676e-16
7.6099159e-05
-3.3688901e-16
7.6099159e-05
-6.8944484e-16
7.6099159e-05
-6.1845552e-16
7.6099159e-05
-7.3818009e-16
7.6099159e-05
-5.3707579e-16
7.6099159e-05
-6.4587943e-16
7.6099159e-05
-4.8075107e-16
7.6099159e-05
-6.182098e-16
7.6099159e-05
-4.4787931e-16
7.6099159e-05
-5.7078255e-16
7.6099159e-05
-3.4395932e-16
7.6099159e-05
-3.791465e-16
7.6099159e-05
-7.9885998e-17
7.6099159e-05
-1.6887692e-16
7.6099159e-05
-5.5323165e-17
7.6099159e-05
-2.8573328e-16
7.6099159e-05
-2.146464e-16
7.6099159e-05
-2.7869153e-16
7.6099159e-05
1.7666514e-17
7.6099159e-05
1.0270766e-16
7.6099159e-05
1.3873335e-16
7.6099159e-05
-2.8055858e-16
7.6099159e-05
-6.0654291e-16
7.6099159e-05
-1.0434871e-15
7.6099159e-05
-1.0055152e-15
7.6099159e-05
-1.0108973e-15
7.6099159e-05
-5.5956863e-16
7.6099159e-05
-3.506916e-16
7.6099159e-05
2.8939347e-18
7.6099159e-05
-1.6293195e-16
7.6099159e-05
1.2656906e-17
7.6099159e-05
-1.9838271e-16
7.6099159e-05
2.6242442e-18
7.6099159e-05
-1.7377239e-16
7.6099159e-05
-3.1412548e-17
7.6099159e-05
-2.3932493e-16
7.6099159e-05
-4.2834443e-17
7.6099159e-05
-6.676308e-17
7.6099159e-05
3.2451935e-16
7.6099159e-05
4.2613108e-16
7.6099159e-05
7.0712763e-16
7.6099159e-05
6.3670512e-16
7.6099159e-05
7.265347e-16
7.6099159e-05
6.2402987e-16
7.6099159e-05
6.9625358e-16
7.6099159e-05
6.3958311e-16
7.6099159e-05
6.9943856e-16
7.6099159e-05
6.6094955e-16
7.6099159e-05
6.8906561e-16
7.6099159e-05
6.6085518e-16
7.6099159e-05
6.6620643e-16
7.6099159e-05
6.5707067e-16
7.6099159e-05
6.4828871e-16
7.6099159e-05
6.6362615e-16
7.6099159e-05
6.3660725e-16
7.6099159e-05
6.7123501e-16
7.6099159e-05
6.2176255e-16
7.6099159e-05
6.7348549e-16
7.6099159e-05
5.9665294e-16
7.6099159e-05
6.6278805e-16
7.6099159e-05
5.6090237e-16
7.6099159e-05
6.508142e-16
7.6099159e-05
5.3171553e-16
7.6099159e-05
6.3534866e-16
7.6099159e-05
4.6768402e-16
7.6099159e-05
5.721991e-16
7.6099159e-05
4.2247451e-16
7.6099159e-05
6.6093297e-16
7.6099159e-05
6.0540915e-16
7.6099159e-05
8.3259997e-16
7.6099159e-05
5.6500997e-16
7.6099159e-05
5.9980903e-16
7.6099159e-05
2.1939751e-16
7.6099159e-05
3.1761591e-16
7.6099159e-05
7.4507769e-17
7.6099159e-05
1.6420621e-16
7.6099159e-05
-1.6095463e-16
7.6099159e-05
-2.2561846e-16
7.6099159e-05
-5.2534898e-16
7.6099159e-05
-3.315933e-16
7.6099159e-05
-5.358868e-16
7.6099159e-05
-3.2557918e-16
7.6099159e-05
-5.2555723e-16
7.6099159e-05
-3.192972e-16
7.6099159e-05
-5.1801717e-16
7.6099159e-05
-3.1009321e-16
7.6099159e-05
-5.086025e-16
7.6099159e-05
-2.9968764e-16
7.6099159e-05
-4.9783248e-16
7.6099159e-05
-2.8257804e-16
7.6099159e-05
-4.7642652e-16
7.6099159e-05
-2.4840011e-16
7.6099159e-05
-4.3642057e-16
7.6099159e-05
-2.1333255e-16
7.6099159e-05
-4.1459257e-16
7.6099159e-05
-2.2612722e-16
7.6099159e-05
-4.3171489e-16
7.6099159e-05
-2.5285549e-16
7.6099159e-05
-4.6428706e-16
7.6099159e-05
-3.0241148e-16
7.6099159e-05
-5.0825744e-16
7.6099159e-05
-3.3797222e-16
7.6099159e-05
-5.3889961e-16
7.6099159e-05
-3.9976201e-16
7.6099159e-05
-6.0589497e-16
7.6099159e-05
-4.8111436e-16
7.6099159e-05
-6.7050654e-16
7.6099159e-05
-5.6840536e-16
7.6099159e-05
-7.229068e-16
7.6099159e-05
-6.4151324e-16
7.6099159e-05
-7.2905048e-16
7.6099159e-05
-6.8595881e-16
7.6099159e-05
-7.0586017e-16
7.6099159e-05
-7.6076173e-16
7.6099159e-05
-7.4776927e-16
7.6099159e-05
-7.661495e-16
7.6099159e-05
-5.1059047e-16
7.6099159e-05
-3.2327026e-16
7.6099159e-05
1.3020577e-16
7.6099159e-05
2.625048e-16
7.6099159e-05
4.9469014e-16
7.6099159e-05
4.0600274e-16
7.6099159e-05
5.3179925e-16
7.6099159e-05
5.1494485e-16
7.6099159e-05
6.296893e-16
7.6099159e-05
5.2200944e-16
7.6099159e-05
3.9940499e-16
7.6099159e-05
1.2498611e-16
7.6099159e-05
-8.8745878e-17
7.6099159e-05
-2.0264639e-16
7.6099159e-05
-2.1436614e-16
7.6099159e-05
-1.9016019e-16
7.6099159e-05
-2.4402916e-16
7.6099159e-05
-3.0004977e-16
7.6099159e-05
-3.4768688e-16
7.6099159e-05
-2.0903281e-16
7.6099159e-05
-2.5054297e-17
7.6099159e-05
2.7027651e-16
7.6099159e-05
3.8077066e-16
7.6099159e-05
4.7001546e-16
7.6099159e-05
3.7252719e-16
7.6099159e-05
4.1191292e-16
7.6099159e-05
2.8719996e-16
7.6099159e-05
3.6991208e-16
7.6099159e-05
3.0309041e-16
7.6099159e-05
4.8215268e-16
7.6099159e-05
4.3285409e-16
7.6099159e-05
4.8593346e-16
7.6099159e-05
1.8001649e-16
7.6099159e-05
3.1086892e-17
7.6099159e-05
-2.8625533e-16
7.6099159e-05
-3.1315984e-16
7.6099159e-05
-4.7885717e-16
7.6099159e-05
-4.6127194e-16
7.6099159e-05
-5.5303072e-16
7.6099159e-05
-4.0239374e-16
7.6099159e-05
-2.9238038e-16
7.6099159e-05
-1.8415093e-17
7.6099159e-05
1.0947181e-16
7.6099159e-05
2.1961595e-16
7.6099159e-05
1.7649436e-16
7.6099159e-05
1.7957125e-16
7.6099159e-05
2.1461206e-16
7.6099159e-05
2.9001968e-16
7.6099159e-05
3.7976209e-16
7.6099159e-05
3.3924852e-16
7.6099159e-05
2.2137061e-16
7.6099159e-05
-2.4693074e-17
7.6099159e-05
-1.8488898e-16
7.6099159e-05
-3.3045732e-16
7.6099159e-05
-3.1780766e-16
7.6099159e-05
-3.4956791e-16
7.6099159e-05
-3.2617565e-16
7.6099159e-05
-3.712382e-16
7.6099159e-05
-3.7818893e-16
7.6099159e-05
-4.2418162e-16
7.6099159e-05
-4.102641e-16
7.6099159e-05
-4.1294278e-16
7.6099159e-05
-3.7878758e-16
7.6099159e-05
-4.3155621e-16
7.6099159e-05
-4.7862309e-16
7.6099159e-05
-5.3469944e-16
7.6099159e-05
-4.3919297e-16
7.6099159e-05
-2.8652803e-16
7.6099159e-05
-5.8393341e-17
7.6099159e-05
7.130361e-17
7.6099159e-05
2.204592e-16
7.6099159e-05
2.5933226e-16
7.6099159e-05
3.3810545e-16
7.6099159e-05
2.527004e-16
7.6099159e-05
1.4346698e-16
7.6099159e-05
-1.276052e-16
7.6099159e-05
-2.5245873e-16
7.6099159e-05
-3.9568671e-16
7.6099159e-05
-3.3748403e-16
7.6099159e-05
-3.8357752e-16
7.6099159e-05
-3.0410739e-16
7.6099159e-05
-3.7243029e-16
7.6099159e-05
-3.0977913e-16
7.6099159e-05
-3.9650042e-16
7.6099159e-05
-3.4474829e-16
7.6099159e-05
-4.2837948e-16
7.6099159e-05
-3.4845256e-16
7.6099159e-05
-4.1809633e-16
7.6099159e-05
-3.2493558e-16
7.6099159e-05
-4.0268443e-16
7.6099159e-05
-3.3173011e-16
7.6099159e-05
-4.2184589e-16
7.6099159e-05
-3.1947351e-16
7.6099159e-05
-3.664949e-16
7.6099159e-05
-3.0830016e-16
7.6099159e-05
-5.1871307e-16
7.6099159e-05
-4.6793297e-16
7.6099159e-05
-3.182258e-16
2.5094019e-17
0.00023312986
0.00043770623
0.00018548527
0.00017459868
0.00015018421
9.6939516e-05
0.0001310242
4.9741119e-05
0.00011965162
2.7695991e-05
0.0001131446
1.5916609e-05
0.00010931814
9.0864948e-06
0.00010710183
5.2976261e-06
0.0001058215
3.0015545e-06
0.00010509347
1.7127854e-06
0.00010468612
9.4305594e-07
0.00010446306
5.1623802e-07
0.00010434425
2.703155e-07
0.00010428311
1.3819613e-07
0.00010425319
6.5916211e-08
0.00010423959
2.9235914e-08
0.0001042342
1.075324e-08
0.00010423268
2.4048753e-09
0.00010423281
-1.0811548e-09
0.00010423352
-2.1169689e-09
0.00010423431
-2.1449177e-09
0.000104235
-1.7800338e-09
0.00010423553
-1.348477e-09
0.00010423592
-9.6059005e-10
0.00010423618
-6.5771486e-10
0.00010423636
-4.3575014e-10
0.00010423648
-2.8158173e-10
0.00010423655
-1.7782408e-10
0.0001042366
-1.1012754e-10
0.00010423662
-6.6900854e-11
0.00010423664
-3.9914131e-11
0.00010423665
-2.3368075e-11
0.00010423666
-1.3419026e-11
0.00010423666
-7.5424264e-12
0.00010423666
-4.1378424e-12
0.00010423666
-2.2048931e-12
0.00010423666
-1.1311315e-12
0.00010423666
-5.5167323e-13
0.00010423666
-2.4834653e-13
0.00010423666
-9.7220601e-14
0.00010423666
-2.5958883e-14
0.00010423666
3.9261959e-15
0.00010423666
1.4448724e-14
0.00010423666
1.5741574e-14
0.00010423666
1.3513873e-14
0.00010423666
1.0314962e-14
0.00010423666
7.186492e-15
0.00010423666
5.0567648e-15
0.00010423666
3.4452831e-15
0.00010423666
2.696216e-15
0.00010423666
1.9374349e-15
0.00010423666
1.8159455e-15
0.00010423666
1.3885559e-15
0.00010423666
1.4589674e-15
0.00010423666
9.7717278e-16
0.00010423666
8.94509e-16
0.00010423666
5.0764267e-16
0.00010423666
5.5307484e-16
0.00010423666
1.5120237e-16
0.00010423666
4.4633193e-16
0.00010423666
1.6222676e-16
0.00010423666
6.0741767e-16
0.00010423666
2.1781592e-16
0.00010423666
5.0011103e-16
0.00010423666
-6.1862333e-17
0.00010423666
9.8721414e-17
0.00010423666
-3.213981e-16
0.00010423666
-9.9709144e-17
0.00010423666
-3.2457223e-16
0.00010423666
-1.3366789e-16
0.00010423666
-5.2049445e-16
0.00010423666
-3.0676501e-16
0.00010423666
-6.5822788e-16
0.00010423666
-4.4890775e-16
0.00010423666
-7.5211177e-16
0.00010423666
-5.4264686e-16
0.00010423666
-7.7311906e-16
0.00010423666
-5.8693945e-16
0.00010423666
-7.8007162e-16
0.00010423666
-6.0116752e-16
0.00010423666
-7.0633153e-16
0.00010423666
-5.2706134e-16
0.00010423666
-6.7008612e-16
0.00010423666
-6.3157809e-16
0.00010423666
-8.7345941e-16
0.00010423666
-8.4764678e-16
0.00010423666
-9.390106e-16
0.00010423666
-7.6151943e-16
0.00010423666
-7.1354538e-16
0.00010423666
-5.1058936e-16
0.00010423666
-4.9685617e-16
0.00010423666
-3.5247387e-16
0.00010423666
-3.8336465e-16
0.00010423666
-2.6090274e-16
0.00010423666
-2.7736225e-16
0.00010423666
-8.2280015e-17
0.00010423666
-4.2592852e-18
0.00010423666
2.186597e-16
0.00010423666
1.9562171e-16
0.00010423666
2.5849085e-16
0.00010423666
1.7845721e-16
0.00010423666
2.4707795e-16
0.00010423666
2.8178811e-16
0.00010423666
3.1999104e-16
0.00010423666
2.1093082e-16
0.00010423666
-8.1064946e-17
0.00010423666
-5.3710503e-16
0.00010423666
-8.882356e-16
0.00010423666
-1.1666822e-15
0.00010423666
-1.0323989e-15
0.00010423666
-8.6070315e-16
0.00010423666
-2.8566523e-16
0.00010423666
6.0082681e-17
0.00010423666
4.2439076e-16
0.00010423666
3.728836e-16
0.00010423666
4.8545141e-16
0.00010423666
3.4861843e-16
0.00010423666
4.6068322e-16
0.00010423666
3.1193716e-16
0.00010423666
4.2106111e-16
0.00010423666
3.0861603e-16
0.00010423666
5.2527689e-16
0.00010423666
5.5063631e-16
0.00010423666
7.9228982e-16