/*--------------------------------*- C++ -*----------------------------------*\
| =========                 |                                                 |
| \\      /  F ield         | OpenFOAM: The Open Source CFD Toolbox           |
|  \\    /   O peration     | Version:  2206                                  |
|   \\  /    A nd           | Website:  www.openfoam.com                      |
|    \\/     M anipulation  |                                                 |
\*---------------------------------------------------------------------------*/
FoamFile
{
    version     2.0;
    format      ascii;
    arch        "LSB;label=32;scalar=64";
    class       volVectorField;
    location    "24";
    object      U;
}
// * * * * * * * * * * * * * * * * * * * * * * * * * * * * * * * * * * * * * //

dimensions      [0 1 -1 0 0 0 0];

internalField   nonuniform List<vector> 
15000
(
(0.15962853 0.053997678 0)
(0.11557193 0.0064916402 0)
(0.064251362 0.0014144196 0)
(0.055918599 0.00074959957 0)
(0.047595817 0.00028826775 0)
(0.044708799 0.00019884308 0)
(0.042412494 9.0522882e-05 0)
(0.041406637 6.0129749e-05 0)
(0.040707475 2.8981841e-05 0)
(0.04037699 1.8022128e-05 0)
(0.040167797 8.6640083e-06 0)
(0.040068659 4.9969146e-06 0)
(0.040011053 2.268154e-06 0)
(0.039985308 1.1740013e-06 0)
(0.039971973 4.4670237e-07 0)
(0.039967049 1.7385045e-07 0)
(0.03996518 1.4041781e-08 0)
(0.039965128 -3.0249217e-08 0)
(0.039965544 -4.8714675e-08 0)
(0.039966152 -4.3274826e-08 0)
(0.03996668 -3.5761822e-08 0)
(0.039967111 -2.6040424e-08 0)
(0.039967422 -1.8531816e-08 0)
(0.039967642 -1.2441429e-08 0)
(0.03996779 -8.2277988e-09 0)
(0.039967887 -5.2512567e-09 0)
(0.039967949 -3.3078411e-09 0)
(0.039967988 -2.0301318e-09 0)
(0.039968012 -1.2292879e-09 0)
(0.039968026 -7.2764946e-10 0)
(0.039968035 -4.2406941e-10 0)
(0.039968039 -2.4158929e-10 0)
(0.039968042 -1.3497224e-10 0)
(0.039968044 -7.3425387e-11 0)
(0.039968045 -3.876167e-11 0)
(0.039968045 -1.9650501e-11 0)
(0.039968045 -9.3760075e-12 0)
(0.039968046 -4.1561247e-12 0)
(0.039968046 -1.5604603e-12 0)
(0.039968046 -4.1411249e-13 0)
(0.039968046 8.7156405e-14 0)
(0.039968046 2.0461728e-13 0)
(0.039968046 1.9962173e-13 0)
(0.039968046 1.254386e-13 0)
(0.039968046 8.0129619e-14 0)
(0.039968046 6.136517e-14 0)
(0.039968046 3.0612345e-14 0)
(0.039968046 1.9960483e-15 0)
(0.039968046 -4.8969651e-14 0)
(0.039968046 -6.8371157e-14 0)
(0.039968046 -1.0684143e-13 0)
(0.039968046 -8.890435e-14 0)
(0.039968046 -8.84347e-14 0)
(0.039968046 -2.4939349e-14 0)
(0.039968046 4.4057726e-15 0)
(0.039968046 2.4022288e-14 0)
(0.039968046 2.5037511e-14 0)
(0.039968046 2.3985936e-14 0)
(0.039968046 2.4197872e-15 0)
(0.039968046 3.7083323e-14 0)
(0.039968046 3.2573399e-14 0)
(0.039968046 7.5861337e-14 0)
(0.039968046 5.592649e-14 0)
(0.039968046 8.6380517e-14 0)
(0.039968046 6.1503387e-14 0)
(0.039968046 8.4400844e-14 0)
(0.039968046 6.4858856e-14 0)
(0.039968046 8.2780483e-14 0)
(0.039968046 7.3942278e-14 0)
(0.039968046 8.8305127e-14 0)
(0.039968046 4.003368e-14 0)
(0.039968046 6.2020232e-14 0)
(0.039968046 2.3231067e-14 0)
(0.039968046 5.9209015e-14 0)
(0.039968046 2.5214022e-14 0)
(0.039968046 6.1443401e-14 0)
(0.039968046 2.8380675e-14 0)
(0.039968046 6.0217689e-14 0)
(0.039968046 2.5158057e-14 0)
(0.039968046 5.447257e-14 0)
(0.039968046 2.3271252e-14 0)
(0.039968046 6.0596231e-14 0)
(0.039968046 3.9653018e-14 0)
(0.039968046 7.193825e-14 0)
(0.039968046 3.4092347e-14 0)
(0.039968046 3.1799991e-14 0)
(0.039968046 -3.7572708e-14 0)
(0.039968046 -3.2829927e-14 0)
(0.039968046 -7.9944754e-14 0)
(0.039968046 -5.319605e-14 0)
(0.039968046 -9.0517076e-14 0)
(0.039968046 -5.8866516e-14 0)
(0.039968046 -9.3314941e-14 0)
(0.039968046 -5.6375908e-14 0)
(0.039968046 -8.7508585e-14 0)
(0.039968046 -4.6701297e-14 0)
(0.039968046 -7.1653383e-14 0)
(0.039968046 -2.1480815e-14 0)
(0.039968046 -4.5261005e-14 0)
(0.039968046 -1.1838129e-14 0)
(0.039968046 -5.3445769e-14 0)
(0.039968046 -3.7092203e-14 0)
(0.039968046 -7.0179221e-14 0)
(0.039968046 -3.4969601e-14 0)
(0.039968046 -2.5102075e-14 0)
(0.039968046 1.0799045e-14 0)
(0.039968046 -2.7105156e-14 0)
(0.039968046 -3.655923e-14 0)
(0.039968046 -9.4952133e-14 0)
(0.039968046 -8.55271e-14 0)
(0.039968046 -1.0881166e-13 0)
(0.039968046 -6.2796514e-14 0)
(0.039968046 -5.6366477e-14 0)
(0.039968046 -1.4149097e-14 0)
(0.039968046 -5.1251775e-14 0)
(0.039968046 -2.587619e-14 0)
(0.039968046 -6.0756106e-14 0)
(0.039968046 -3.0453179e-14 0)
(0.039968046 -5.4675165e-14 0)
(0.039968046 -3.1368978e-14 0)
(0.039968046 -6.1884102e-14 0)
(0.039968046 -4.0273459e-14 0)
(0.039968046 -5.6422536e-14 0)
(0.039968046 -1.4422004e-14 0)
(0.039968046 6.5892739e-15 0)
(0.039968046 5.7123228e-14 0)
(0.039968046 6.6714742e-14 0)
(0.039968046 8.9772129e-14 0)
(0.039968046 8.6504974e-14 0)
(0.039968046 9.9727762e-14 0)
(0.039968046 9.6252716e-14 0)
(0.039968046 1.0292146e-13 0)
(0.039968046 1.0012157e-13 0)
(0.039968046 1.0119078e-13 0)
(0.039968046 1.0055806e-13 0)
(0.039968046 9.8858355e-14 0)
(0.039968046 1.0134774e-13 0)
(0.039968046 9.7216431e-14 0)
(0.039968046 1.0270585e-13 0)
(0.039968046 9.5745147e-14 0)
(0.039968046 1.0344163e-13 0)
(0.039968046 9.3410492e-14 0)
(0.039968046 1.0322572e-13 0)
(0.039968046 9.0003628e-14 0)
(0.039968046 1.0187335e-13 0)
(0.039968046 8.5558692e-14 0)
(0.039968046 1.0038453e-13 0)
(0.039968046 8.2397235e-14 0)
(0.039968046 1.007601e-13 0)
(0.039968046 7.7928224e-14 0)
(0.039968046 9.5433855e-14 0)
(0.039968046 7.1163753e-14 0)
(0.039968046 9.856508e-14 0)
(0.039968046 8.7312887e-14 0)
(0.039968046 1.2369492e-13 0)
(0.039968046 9.5650608e-14 0)
(0.039968046 1.1553058e-13 0)
(0.039968046 5.762497e-14 0)
(0.039968046 5.7032065e-14 0)
(0.039968046 6.6188485e-15 0)
(0.039968046 5.6888613e-15 0)
(0.039968046 -4.2735281e-14 0)
(0.039968046 -5.2981609e-14 0)
(0.039968046 -8.8198285e-14 0)
(0.039968046 -5.7540492e-14 0)
(0.039968046 -7.9484304e-14 0)
(0.039968046 -5.081027e-14 0)
(0.039968046 -7.4370266e-14 0)
(0.039968046 -4.8435234e-14 0)
(0.039968046 -7.2454104e-14 0)
(0.039968046 -4.7044019e-14 0)
(0.039968046 -7.1325738e-14 0)
(0.039968046 -4.6385353e-14 0)
(0.039968046 -7.0465889e-14 0)
(0.039968046 -4.5033311e-14 0)
(0.039968046 -6.8470197e-14 0)
(0.039968046 -4.1444714e-14 0)
(0.039968046 -6.3644215e-14 0)
(0.039968046 -3.7075485e-14 0)
(0.039968046 -6.056778e-14 0)
(0.039968046 -3.940853e-14 0)
(0.039968046 -6.3305154e-14 0)
(0.039968046 -4.3633816e-14 0)
(0.039968046 -6.7807116e-14 0)
(0.039968046 -5.0590267e-14 0)
(0.039968046 -7.4243536e-14 0)
(0.039968046 -5.5444906e-14 0)
(0.039968046 -7.7451244e-14 0)
(0.039968046 -6.0472556e-14 0)
(0.039968046 -8.3956702e-14 0)
(0.039968046 -6.9419938e-14 0)
(0.039968046 -9.4102059e-14 0)
(0.039968046 -8.3653952e-14 0)
(0.039968046 -1.0645857e-13 0)
(0.039968046 -9.908138e-14 0)
(0.039968046 -1.1647257e-13 0)
(0.039968046 -1.1468032e-13 0)
(0.039968046 -1.2178377e-13 0)
(0.039968046 -1.2390812e-13 0)
(0.039968046 -1.2432185e-13 0)
(0.039968046 -1.261161e-13 0)
(0.039968046 -1.0533666e-13 0)
(0.039968046 -8.928392e-14 0)
(0.039968046 -4.0987681e-14 0)
(0.039968046 -4.4056344e-15 0)
(0.039968046 3.9099542e-14 0)
(0.039968046 4.8419197e-14 0)
(0.039968046 6.9906691e-14 0)
(0.039968046 7.7124832e-14 0)
(0.039968046 9.58304e-14 0)
(0.039968046 9.496065e-14 0)
(0.039968046 8.9631058e-14 0)
(0.039968046 6.2811707e-14 0)
(0.039968046 2.5743121e-14 0)
(0.039968046 -2.2214114e-15 0)
(0.039968046 -1.996275e-14 0)
(0.039968046 -2.3640467e-14 0)
(0.039968046 -3.3604499e-14 0)
(0.039968046 -4.0448939e-14 0)
(0.039968046 -5.0881356e-14 0)
(0.039968046 -4.0631593e-14 0)
(0.039968046 -2.9147129e-14 0)
(0.039968046 1.4295321e-15 0)
(0.039968046 2.6946799e-14 0)
(0.039968046 5.1580302e-14 0)
(0.039968046 5.0565228e-14 0)
(0.039968046 6.118899e-14 0)
(0.039968046 4.9107386e-14 0)
(0.039968046 5.7852775e-14 0)
(0.039968046 4.554192e-14 0)
(0.039968046 6.2629875e-14 0)
(0.039968046 5.6816634e-14 0)
(0.039968046 7.1771217e-14 0)
(0.039968046 4.298378e-14 0)
(0.039968046 3.545138e-14 0)
(0.039968046 -1.1944729e-14 0)
(0.039968046 -2.7353386e-14 0)
(0.039968046 -5.8650939e-14 0)
(0.039968046 -6.4994965e-14 0)
(0.039968046 -8.7167212e-14 0)
(0.039968046 -8.232961e-14 0)
(0.039968046 -8.3323314e-14 0)
(0.039968046 -4.9146034e-14 0)
(0.039968046 -2.4681395e-14 0)
(0.039968046 7.219846e-15 0)
(0.039968046 1.2181486e-14 0)
(0.039968046 1.9586147e-14 0)
(0.039968046 2.3950216e-14 0)
(0.039968046 3.4298356e-14 0)
(0.039968046 4.8511985e-14 0)
(0.039968046 5.2802652e-14 0)
(0.039968046 4.8711217e-14 0)
(0.039968046 2.8033384e-14 0)
(0.039968046 5.6054835e-16 0)
(0.039968046 -3.1304754e-14 0)
(0.039968046 -4.2644983e-14 0)
(0.039968046 -5.503213e-14 0)
(0.039968046 -5.7179546e-14 0)
(0.039968046 -6.4837404e-14 0)
(0.039968046 -6.5903359e-14 0)
(0.039968046 -7.1735137e-14 0)
(0.039968046 -7.0246826e-14 0)
(0.039968046 -7.223267e-14 0)
(0.039968046 -6.6910897e-14 0)
(0.039968046 -7.2310086e-14 0)
(0.039968046 -7.6794108e-14 0)
(0.039968046 -8.9911303e-14 0)
(0.039968046 -8.5156696e-14 0)
(0.039968046 -7.8837881e-14 0)
(0.039968046 -5.2787744e-14 0)
(0.039968046 -3.0845789e-14 0)
(0.039968046 2.2065766e-15 0)
(0.039968046 1.9036669e-14 0)
(0.039968046 4.675582e-14 0)
(0.039968046 5.2120934e-14 0)
(0.039968046 5.9420435e-14 0)
(0.039968046 3.2475146e-14 0)
(0.039968046 9.4568563e-15 0)
(0.039968046 -2.7194255e-14 0)
(0.039968046 -3.2151726e-14 0)
(0.039968046 -4.908251e-14 0)
(0.039968046 -4.3822157e-14 0)
(0.039968046 -5.6154495e-14 0)
(0.039968046 -4.8078427e-14 0)
(0.039968046 -5.8209647e-14 0)
(0.039968046 -5.0544305e-14 0)
(0.039968046 -6.1665573e-14 0)
(0.039968046 -5.2113361e-14 0)
(0.039968046 -6.2628147e-14 0)
(0.039968046 -5.1533064e-14 0)
(0.039968046 -6.1837745e-14 0)
(0.039968046 -5.2622302e-14 0)
(0.039968046 -6.4806201e-14 0)
(0.039968046 -5.3557182e-14 0)
(0.039968046 -6.0002979e-14 0)
(0.039968046 -4.8230084e-14 0)
(0.039968046 -6.9775465e-14 0)
(0.039968046 -7.0412842e-14 0)
(0.039968046 -7.4190816e-14 0)
(0.039968046 -2.7636168e-14 0)
(0.36732383 0.14062829 0)
(0.29754389 0.025079381 0)
(0.1860793 0.0083694605 0)
(0.16132807 0.0041218731 0)
(0.13901859 0.0019375782 0)
(0.13040448 0.0011770222 0)
(0.12396461 0.00061112875 0)
(0.12095998 0.00037192123 0)
(0.1189454 0.00019726946 0)
(0.11794826 0.00011564529 0)
(0.11733081 6.0263808e-05 0)
(0.11702581 3.3418615e-05 0)
(0.11685066 1.6513621e-05 0)
(0.11676842 8.3937851e-06 0)
(0.1167257 3.6636496e-06 0)
(0.11670834 1.5208024e-06 0)
(0.1167012 3.9921304e-07 0)
(0.11669986 -2.8332167e-08 0)
(0.1167004 -1.9923179e-07 0)
(0.11670175 -2.160154e-07 0)
(0.11670304 -1.9038159e-07 0)
(0.11670415 -1.4603903e-07 0)
(0.11670497 -1.0637442e-07 0)
(0.11670557 -7.3287548e-08 0)
(0.11670597 -4.9148351e-08 0)
(0.11670624 -3.1904251e-08 0)
(0.11670642 -2.0314925e-08 0)
(0.11670653 -1.2633865e-08 0)
(0.11670659 -7.7266004e-09 0)
(0.11670664 -4.6300392e-09 0)
(0.11670666 -2.7274953e-09 0)
(0.11670667 -1.5741315e-09 0)
(0.11670668 -8.9082259e-10 0)
(0.11670669 -4.9232166e-10 0)
(0.11670669 -2.648858e-10 0)
(0.11670669 -1.3768591e-10 0)
(0.11670669 -6.8167078e-11 0)
(0.11670669 -3.1682027e-11 0)
(0.11670669 -1.3121844e-11 0)
(0.11670669 -4.3641178e-12 0)
(0.11670669 -4.2870133e-13 0)
(0.11670669 9.5710036e-13 0)
(0.11670669 1.3141064e-12 0)
(0.11670669 1.1464761e-12 0)
(0.11670669 8.7984395e-13 0)
(0.11670669 6.1319976e-13 0)
(0.11670669 3.265286e-13 0)
(0.11670669 1.446117e-13 0)
(0.11670669 -2.261357e-14 0)
(0.11670669 -8.2915241e-14 0)
(0.11670669 -1.6930275e-13 0)
(0.11670669 -1.2020171e-13 0)
(0.11670669 -7.7209605e-14 0)
(0.11670669 9.9014134e-14 0)
(0.11670669 1.3999686e-13 0)
(0.11670669 1.8267089e-13 0)
(0.11670669 1.4855357e-13 0)
(0.11670669 1.3043517e-13 0)
(0.11670669 3.9188419e-14 0)
(0.11670669 1.0401432e-13 0)
(0.11670669 8.5649175e-14 0)
(0.11670669 2.0454555e-13 0)
(0.11670669 1.4869683e-13 0)
(0.11670669 2.2243995e-13 0)
(0.11670669 1.3395655e-13 0)
(0.11670669 1.888025e-13 0)
(0.11670669 1.3281432e-13 0)
(0.11670669 1.9543873e-13 0)
(0.11670669 1.7284376e-13 0)
(0.11670669 2.1011801e-13 0)
(0.11670669 8.6256044e-14 0)
(0.11670669 1.2586168e-13 0)
(0.11670669 2.6243221e-14 0)
(0.11670669 9.62173e-14 0)
(0.11670669 1.713122e-14 0)
(0.11670669 9.4535638e-14 0)
(0.11670669 2.6628241e-14 0)
(0.11670669 9.0976557e-14 0)
(0.11670669 1.6169086e-14 0)
(0.11670669 7.3585187e-14 0)
(0.11670669 2.4096475e-14 0)
(0.11670669 1.0709752e-13 0)
(0.11670669 6.4642221e-14 0)
(0.11670669 1.0560027e-13 0)
(0.11670669 -1.0936837e-14 0)
(0.11670669 -5.6577e-14 0)
(0.11670669 -1.8684513e-13 0)
(0.11670669 -1.6890247e-13 0)
(0.11670669 -2.2413819e-13 0)
(0.11670669 -1.5645322e-13 0)
(0.11670669 -2.0368781e-13 0)
(0.11670669 -1.4399135e-13 0)
(0.11670669 -2.0238032e-13 0)
(0.11670669 -1.4116812e-13 0)
(0.11670669 -1.9614948e-13 0)
(0.11670669 -1.1873372e-13 0)
(0.11670669 -1.4382963e-13 0)
(0.11670669 -4.1537127e-14 0)
(0.11670669 -8.1996992e-14 0)
(0.11670669 -4.2281535e-14 0)
(0.11670669 -1.2854456e-13 0)
(0.11670669 -1.0401443e-13 0)
(0.11670669 -1.1910772e-13 0)
(0.11670669 -1.6771996e-14 0)
(0.11670669 3.2608143e-14 0)
(0.11670669 6.0524742e-14 0)
(0.11670669 -7.5476524e-14 0)
(0.11670669 -1.7407083e-13 0)
(0.11670669 -3.2568014e-13 0)
(0.11670669 -3.0862023e-13 0)
(0.11670669 -3.2278335e-13 0)
(0.11670669 -1.8201813e-13 0)
(0.11670669 -1.2728263e-13 0)
(0.11670669 -2.5545066e-14 0)
(0.11670669 -8.4716925e-14 0)
(0.11670669 -4.4610832e-14 0)
(0.11670669 -1.0497502e-13 0)
(0.11670669 -4.9164718e-14 0)
(0.11670669 -9.6646023e-14 0)
(0.11670669 -6.1008871e-14 0)
(0.11670669 -1.2187273e-13 0)
(0.11670669 -6.9136429e-14 0)
(0.11670669 -6.3890795e-14 0)
(0.11670669 5.5370876e-14 0)
(0.11670669 1.2080331e-13 0)
(0.11670669 2.1248512e-13 0)
(0.11670669 2.1057675e-13 0)
(0.11670669 2.3741847e-13 0)
(0.11670669 2.1710748e-13 0)
(0.11670669 2.3535729e-13 0)
(0.11670669 2.2987737e-13 0)
(0.11670669 2.4217261e-13 0)
(0.11670669 2.4199069e-13 0)
(0.11670669 2.4260994e-13 0)
(0.11670669 2.45097e-13 0)
(0.11670669 2.3772288e-13 0)
(0.11670669 2.4610932e-13 0)
(0.11670669 2.33736e-13 0)
(0.11670669 2.4894311e-13 0)
(0.11670669 2.3087054e-13 0)
(0.11670669 2.5139637e-13 0)
(0.11670669 2.2636873e-13 0)
(0.11670669 2.5173223e-13 0)
(0.11670669 2.1850468e-13 0)
(0.11670669 2.4812783e-13 0)
(0.11670669 2.0760869e-13 0)
(0.11670669 2.4523117e-13 0)
(0.11670669 2.0039951e-13 0)
(0.11670669 2.4245222e-13 0)
(0.11670669 1.8302169e-13 0)
(0.11670669 2.2230246e-13 0)
(0.11670669 1.6684213e-13 0)
(0.11670669 2.5159084e-13 0)
(0.11670669 2.3042111e-13 0)
(0.11670669 3.0790589e-13 0)
(0.11670669 2.1521e-13 0)
(0.11670669 2.2150366e-13 0)
(0.11670669 7.5824006e-14 0)
(0.11670669 1.015111e-13 0)
(0.11670669 4.2477495e-15 0)
(0.11670669 2.7418806e-14 0)
(0.11670669 -8.1511812e-14 0)
(0.11670669 -1.0454398e-13 0)
(0.11670669 -1.9701056e-13 0)
(0.11670669 -1.2402132e-13 0)
(0.11670669 -1.8767034e-13 0)
(0.11670669 -1.1584975e-13 0)
(0.11670669 -1.8033058e-13 0)
(0.11670669 -1.1237199e-13 0)
(0.11670669 -1.7626976e-13 0)
(0.11670669 -1.0895266e-13 0)
(0.11670669 -1.7285054e-13 0)
(0.11670669 -1.0642546e-13 0)
(0.11670669 -1.6997667e-13 0)
(0.11670669 -1.0269819e-13 0)
(0.11670669 -1.6406343e-13 0)
(0.11670669 -9.2805458e-14 0)
(0.11670669 -1.5085156e-13 0)
(0.11670669 -8.1684623e-14 0)
(0.11670669 -1.4355225e-13 0)
(0.11670669 -8.7765348e-14 0)
(0.11670669 -1.5154691e-13 0)
(0.11670669 -9.8823765e-14 0)
(0.11670669 -1.6517512e-13 0)
(0.11670669 -1.1760508e-13 0)
(0.11670669 -1.8198726e-13 0)
(0.11670669 -1.290131e-13 0)
(0.11670669 -1.9078549e-13 0)
(0.11670669 -1.4647285e-13 0)
(0.11670669 -2.1136784e-13 0)
(0.11670669 -1.7376748e-13 0)
(0.11670669 -2.3746989e-13 0)
(0.11670669 -2.1066711e-13 0)
(0.11670669 -2.674092e-13 0)
(0.11670669 -2.4832335e-13 0)
(0.11670669 -2.8667522e-13 0)
(0.11670669 -2.7644319e-13 0)
(0.11670669 -2.9054945e-13 0)
(0.11670669 -3.0722653e-13 0)
(0.11670669 -3.085096e-13 0)
(0.11670669 -3.0818343e-13 0)
(0.11670669 -2.2702297e-13 0)
(0.11670669 -1.520846e-13 0)
(0.11670669 -9.2005556e-17 0)
(0.11670669 6.9830666e-14 0)
(0.11670669 1.5301192e-13 0)
(0.11670669 1.4228429e-13 0)
(0.11670669 1.8510305e-13 0)
(0.11670669 1.9481652e-13 0)
(0.11670669 2.3286792e-13 0)
(0.11670669 2.108363e-13 0)
(0.11670669 1.6335633e-13 0)
(0.11670669 7.4533277e-14 0)
(0.11670669 -1.2478987e-14 0)
(0.11670669 -5.3245377e-14 0)
(0.11670669 -6.5423228e-14 0)
(0.11670669 -5.7217266e-14 0)
(0.11670669 -7.7362334e-14 0)
(0.11670669 -9.9996531e-14 0)
(0.11670669 -1.1654584e-13 0)
(0.11670669 -7.1896572e-14 0)
(0.11670669 -1.1443408e-14 0)
(0.11670669 9.0661333e-14 0)
(0.11670669 1.3658357e-13 0)
(0.11670669 1.694233e-13 0)
(0.11670669 1.4097223e-13 0)
(0.11670669 1.4828464e-13 0)
(0.11670669 1.0586351e-13 0)
(0.11670669 1.2615594e-13 0)
(0.11670669 1.0368405e-13 0)
(0.11670669 1.6074383e-13 0)
(0.11670669 1.4962689e-13 0)
(0.11670669 1.6159945e-13 0)
(0.11670669 6.629581e-14 0)
(0.11670669 1.1864859e-14 0)
(0.11670669 -1.0150106e-13 0)
(0.11670669 -1.1464855e-13 0)
(0.11670669 -1.7819775e-13 0)
(0.11670669 -1.7557235e-13 0)
(0.11670669 -2.1267799e-13 0)
(0.11670669 -1.6217822e-13 0)
(0.11670669 -1.3338868e-13 0)
(0.11670669 -3.1052962e-14 0)
(0.11670669 1.3370677e-14 0)
(0.11670669 5.7588396e-14 0)
(0.11670669 4.5737658e-14 0)
(0.11670669 4.6125667e-14 0)
(0.11670669 5.8349895e-14 0)
(0.11670669 8.9427109e-14 0)
(0.11670669 1.2318815e-13 0)
(0.11670669 1.1386343e-13 0)
(0.11670669 7.7379197e-14 0)
(0.11670669 -4.0994708e-15 0)
(0.11670669 -6.92034e-14 0)
(0.11670669 -1.1960198e-13 0)
(0.11670669 -1.2233981e-13 0)
(0.11670669 -1.3312871e-13 0)
(0.11670669 -1.2506074e-13 0)
(0.11670669 -1.4171158e-13 0)
(0.11670669 -1.4330647e-13 0)
(0.11670669 -1.6237136e-13 0)
(0.11670669 -1.5683736e-13 0)
(0.11670669 -1.6026364e-13 0)
(0.11670669 -1.4840653e-13 0)
(0.11670669 -1.7155506e-13 0)
(0.11670669 -1.881857e-13 0)
(0.11670669 -2.1409298e-13 0)
(0.11670669 -1.8018214e-13 0)
(0.11670669 -1.336857e-13 0)
(0.11670669 -5.1958323e-14 0)
(0.11670669 1.649822e-15 0)
(0.11670669 6.0130254e-14 0)
(0.11670669 8.6202669e-14 0)
(0.11670669 1.2428751e-13 0)
(0.11670669 9.9875088e-14 0)
(0.11670669 7.4911484e-14 0)
(0.11670669 -2.0884191e-14 0)
(0.11670669 -6.7361029e-14 0)
(0.11670669 -1.2145187e-13 0)
(0.11670669 -1.0835649e-13 0)
(0.11670669 -1.2380127e-13 0)
(0.11670669 -1.0062473e-13 0)
(0.11670669 -1.2342196e-13 0)
(0.11670669 -1.0577998e-13 0)
(0.11670669 -1.3392024e-13 0)
(0.11670669 -1.1786937e-13 0)
(0.11670669 -1.4591181e-13 0)
(0.11670669 -1.2368809e-13 0)
(0.11670669 -1.4600043e-13 0)
(0.11670669 -1.1883546e-13 0)
(0.11670669 -1.4316661e-13 0)
(0.11670669 -1.2314689e-13 0)
(0.11670669 -1.516631e-13 0)
(0.11670669 -1.1988261e-13 0)
(0.11670669 -1.3126903e-13 0)
(0.11670669 -1.1449313e-13 0)
(0.11670669 -1.9040342e-13 0)
(0.11670669 -1.7956882e-13 0)
(0.11670669 -1.2197258e-13 0)
(0.11670669 3.1223562e-15 0)
(0.50390834 0.19019021 0)
(0.4384704 0.0504315 0)
(0.29767008 0.02205531 0)
(0.25944374 0.010780095 0)
(0.22598939 0.005562136 0)
(0.21213187 0.0032307968 0)
(0.20205719 0.00177329 0)
(0.19716897 0.0010457402 0)
(0.19394744 0.0005767977 0)
(0.19230772 0.00033133703 0)
(0.19130242 0.00017833203 0)
(0.19079327 9.7728687e-05 0)
(0.19050201 4.9924195e-05 0)
(0.1903612 2.5326984e-05 0)
(0.19028763 1.1619912e-05 0)
(0.19025609 4.9684179e-06 0)
(0.1902425 1.5958529e-06 0)
(0.19023894 1.7300998e-07 0)
(0.19023899 -4.0012779e-07 0)
(0.19024063 -5.2267966e-07 0)
(0.19024241 -4.8502393e-07 0)
(0.19024402 -3.8485152e-07 0)
(0.19024524 -2.8482462e-07 0)
(0.19024615 -1.9922548e-07 0)
(0.19024677 -1.347857e-07 0)
(0.19024719 -8.8325599e-08 0)
(0.19024746 -5.6604962e-08 0)
(0.19024763 -3.5456517e-08 0)
(0.19024774 -2.1807079e-08 0)
(0.1902478 -1.3152153e-08 0)
(0.19024784 -7.7932363e-09 0)
(0.19024787 -4.5285679e-09 0)
(0.19024788 -2.5804993e-09 0)
(0.19024789 -1.4377339e-09 0)
(0.19024789 -7.8078716e-10 0)
(0.19024789 -4.1075317e-10 0)
(0.1902479 -2.0701134e-10 0)
(0.1902479 -9.8539396e-11 0)
(0.1902479 -4.2598183e-11 0)
(0.1902479 -1.5411431e-11 0)
(0.1902479 -2.9237799e-12 0)
(0.1902479 1.9359476e-12 0)
(0.1902479 3.4092818e-12 0)
(0.1902479 3.2707571e-12 0)
(0.1902479 2.6536308e-12 0)
(0.1902479 1.9471649e-12 0)
(0.1902479 1.2395819e-12 0)
(0.1902479 7.5697012e-13 0)
(0.1902479 3.5820698e-13 0)
(0.1902479 1.779246e-13 0)
(0.1902479 -3.9862397e-14 0)
(0.1902479 -7.7606067e-15 0)
(0.1902479 8.2198e-15 0)
(0.1902479 2.4324655e-13 0)
(0.1902479 2.5738305e-13 0)
(0.1902479 3.2439018e-13 0)
(0.1902479 2.4781673e-13 0)
(0.1902479 2.4349458e-13 0)
(0.1902479 9.7155074e-14 0)
(0.1902479 2.1000052e-13 0)
(0.1902479 1.6161204e-13 0)
(0.1902479 3.4214789e-13 0)
(0.1902479 2.3221282e-13 0)
(0.1902479 3.4189541e-13 0)
(0.1902479 1.7644339e-13 0)
(0.1902479 2.60684e-13 0)
(0.1902479 1.5532487e-13 0)
(0.1902479 2.5687624e-13 0)
(0.1902479 2.0943964e-13 0)
(0.1902479 2.765545e-13 0)
(0.1902479 1.0023877e-13 0)
(0.1902479 1.6171796e-13 0)
(0.1902479 1.4299057e-14 0)
(0.1902479 1.0697997e-13 0)
(0.1902479 -7.4124414e-15 0)
(0.1902479 9.4804984e-14 0)
(0.1902479 1.9371469e-15 0)
(0.1902479 8.5261949e-14 0)
(0.1902479 -1.3350557e-14 0)
(0.1902479 5.7261538e-14 0)
(0.1902479 -3.7648616e-16 0)
(0.1902479 1.0737304e-13 0)
(0.1902479 6.058581e-14 0)
(0.1902479 1.0459732e-13 0)
(0.1902479 -5.0795163e-14 0)
(0.1902479 -1.3117649e-13 0)
(0.1902479 -2.9288504e-13 0)
(0.1902479 -2.7834923e-13 0)
(0.1902479 -3.3015359e-13 0)
(0.1902479 -2.5115825e-13 0)
(0.1902479 -2.9402209e-13 0)
(0.1902479 -2.30222e-13 0)
(0.1902479 -2.8786255e-13 0)
(0.1902479 -2.2190748e-13 0)
(0.1902479 -2.743482e-13 0)
(0.1902479 -1.8300182e-13 0)
(0.1902479 -1.9093062e-13 0)
(0.1902479 -6.2427235e-14 0)
(0.1902479 -9.3443079e-14 0)
(0.1902479 -5.5632231e-14 0)
(0.1902479 -1.5724996e-13 0)
(0.1902479 -1.4360756e-13 0)
(0.1902479 -1.5098752e-13 0)
(0.1902479 -1.5960193e-14 0)
(0.1902479 6.2730532e-14 0)
(0.1902479 7.7554559e-14 0)
(0.1902479 -1.0588311e-13 0)
(0.1902479 -2.7549112e-13 0)
(0.1902479 -4.7725833e-13 0)
(0.1902479 -4.6939203e-13 0)
(0.1902479 -4.7039581e-13 0)
(0.1902479 -2.7507707e-13 0)
(0.1902479 -1.8017889e-13 0)
(0.1902479 -3.8272039e-14 0)
(0.1902479 -9.8550051e-14 0)
(0.1902479 -4.5742324e-14 0)
(0.1902479 -1.1988974e-13 0)
(0.1902479 -4.7146545e-14 0)
(0.1902479 -1.0737541e-13 0)
(0.1902479 -6.1696535e-14 0)
(0.1902479 -1.4462083e-13 0)
(0.1902479 -7.464163e-14 0)
(0.1902479 -6.3178788e-14 0)
(0.1902479 1.1091154e-13 0)
(0.1902479 1.9669465e-13 0)
(0.1902479 3.1884292e-13 0)
(0.1902479 3.0669756e-13 0)
(0.1902479 3.4082303e-13 0)
(0.1902479 3.0688797e-13 0)
(0.1902479 3.3092189e-13 0)
(0.1902479 3.1828607e-13 0)
(0.1902479 3.3693332e-13 0)
(0.1902479 3.3113245e-13 0)
(0.1902479 3.3509395e-13 0)
(0.1902479 3.3246332e-13 0)
(0.1902479 3.2649821e-13 0)
(0.1902479 3.3174267e-13 0)
(0.1902479 3.2001815e-13 0)
(0.1902479 3.3512765e-13 0)
(0.1902479 3.1595106e-13 0)
(0.1902479 3.3885765e-13 0)
(0.1902479 3.1019032e-13 0)
(0.1902479 3.3978617e-13 0)
(0.1902479 2.9957843e-13 0)
(0.1902479 3.3470442e-13 0)
(0.1902479 2.8384616e-13 0)
(0.1902479 3.3001667e-13 0)
(0.1902479 2.7254027e-13 0)
(0.1902479 3.2430124e-13 0)
(0.1902479 2.4550195e-13 0)
(0.1902479 2.9356659e-13 0)
(0.1902479 2.2041025e-13 0)
(0.1902479 3.3563508e-13 0)
(0.1902479 3.131028e-13 0)
(0.1902479 4.1975437e-13 0)
(0.1902479 2.9552984e-13 0)
(0.1902479 2.9470212e-13 0)
(0.1902479 1.0104653e-13 0)
(0.1902479 1.4045732e-13 0)
(0.1902479 1.8262573e-14 0)
(0.1902479 5.4388252e-14 0)
(0.1902479 -9.460119e-14 0)
(0.1902479 -1.2787712e-13 0)
(0.1902479 -2.6265193e-13 0)
(0.1902479 -1.7091986e-13 0)
(0.1902479 -2.6518611e-13 0)
(0.1902479 -1.6708539e-13 0)
(0.1902479 -2.5894447e-13 0)
(0.1902479 -1.6367738e-13 0)
(0.1902479 -2.5424401e-13 0)
(0.1902479 -1.590208e-13 0)
(0.1902479 -2.4942743e-13 0)
(0.1902479 -1.5468039e-13 0)
(0.1902479 -2.4496079e-13 0)
(0.1902479 -1.4790237e-13 0)
(0.1902479 -2.3577289e-13 0)
(0.1902479 -1.3350641e-13 0)
(0.1902479 -2.1736158e-13 0)
(0.1902479 -1.1784944e-13 0)
(0.1902479 -2.0777001e-13 0)
(0.1902479 -1.2524986e-13 0)
(0.1902479 -2.1752679e-13 0)
(0.1902479 -1.3877042e-13 0)
(0.1902479 -2.348047e-13 0)
(0.1902479 -1.6352796e-13 0)
(0.1902479 -2.5732568e-13 0)
(0.1902479 -1.8036078e-13 0)
(0.1902479 -2.7119559e-13 0)
(0.1902479 -2.0792517e-13 0)
(0.1902479 -3.0189799e-13 0)
(0.1902479 -2.4724867e-13 0)
(0.1902479 -3.3514739e-13 0)
(0.1902479 -2.9373176e-13 0)
(0.1902479 -3.6773878e-13 0)
(0.1902479 -3.3678682e-13 0)
(0.1902479 -3.8162945e-13 0)
(0.1902479 -3.6414681e-13 0)
(0.1902479 -3.7493646e-13 0)
(0.1902479 -4.0113279e-13 0)
(0.1902479 -3.9807167e-13 0)
(0.1902479 -4.0457267e-13 0)
(0.1902479 -2.8607044e-13 0)
(0.1902479 -1.8371473e-13 0)
(0.1902479 4.079785e-14 0)
(0.1902479 1.2127801e-13 0)
(0.1902479 2.3479068e-13 0)
(0.1902479 2.0349804e-13 0)
(0.1902479 2.6387208e-13 0)
(0.1902479 2.6726791e-13 0)
(0.1902479 3.2301031e-13 0)
(0.1902479 2.8284107e-13 0)
(0.1902479 2.1522214e-13 0)
(0.1902479 8.0143271e-14 0)
(0.1902479 -3.5613312e-14 0)
(0.1902479 -9.1754411e-14 0)
(0.1902479 -1.0211866e-13 0)
(0.1902479 -9.149264e-14 0)
(0.1902479 -1.1777957e-13 0)
(0.1902479 -1.5124322e-13 0)
(0.1902479 -1.7581811e-13 0)
(0.1902479 -1.1469548e-13 0)
(0.1902479 -2.1811975e-14 0)
(0.1902479 1.29515e-13 0)
(0.1902479 1.8930425e-13 0)
(0.1902479 2.3387115e-13 0)
(0.1902479 1.9252348e-13 0)
(0.1902479 2.0712437e-13 0)
(0.1902479 1.4939703e-13 0)
(0.1902479 1.8171315e-13 0)
(0.1902479 1.5203483e-13 0)
(0.1902479 2.3538486e-13 0)
(0.1902479 2.2164067e-13 0)
(0.1902479 2.4039951e-13 0)
(0.1902479 1.024016e-13 0)
(0.1902479 1.4626222e-14 0)
(0.1902479 -1.4165987e-13 0)
(0.1902479 -1.5785842e-13 0)
(0.1902479 -2.4217967e-13 0)
(0.1902479 -2.3929427e-13 0)
(0.1902479 -2.8858014e-13 0)
(0.1902479 -2.1572174e-13 0)
(0.1902479 -1.6275805e-13 0)
(0.1902479 -1.8872629e-14 0)
(0.1902479 4.5306032e-14 0)
(0.1902479 1.0102787e-13 0)
(0.1902479 8.5158986e-14 0)
(0.1902479 8.4349335e-14 0)
(0.1902479 1.0307008e-13 0)
(0.1902479 1.4486417e-13 0)
(0.1902479 1.9310487e-13 0)
(0.1902479 1.778341e-13 0)
(0.1902479 1.2092558e-13 0)
(0.1902479 -4.5441297e-15 0)
(0.1902479 -9.3592839e-14 0)
(0.1902479 -1.6222299e-13 0)
(0.1902479 -1.6288734e-13 0)
(0.1902479 -1.7843526e-13 0)
(0.1902479 -1.674274e-13 0)
(0.1902479 -1.9038769e-13 0)
(0.1902479 -1.9341452e-13 0)
(0.1902479 -2.184899e-13 0)
(0.1902479 -2.1146179e-13 0)
(0.1902479 -2.1301073e-13 0)
(0.1902479 -1.9572168e-13 0)
(0.1902479 -2.2380449e-13 0)
(0.1902479 -2.4854527e-13 0)
(0.1902479 -2.8110298e-13 0)
(0.1902479 -2.3581568e-13 0)
(0.1902479 -1.6000598e-13 0)
(0.1902479 -4.3863721e-14 0)
(0.1902479 3.0404341e-14 0)
(0.1902479 1.0217031e-13 0)
(0.1902479 1.3454039e-13 0)
(0.1902479 1.776166e-13 0)
(0.1902479 1.4017145e-13 0)
(0.1902479 8.6426407e-14 0)
(0.1902479 -5.4655527e-14 0)
(0.1902479 -1.2153928e-13 0)
(0.1902479 -1.8950363e-13 0)
(0.1902479 -1.6942419e-13 0)
(0.1902479 -1.8824686e-13 0)
(0.1902479 -1.5536167e-13 0)
(0.1902479 -1.8488215e-13 0)
(0.1902479 -1.5958249e-13 0)
(0.1902479 -1.9827266e-13 0)
(0.1902479 -1.7578044e-13 0)
(0.1902479 -2.1337066e-13 0)
(0.1902479 -1.8058242e-13 0)
(0.1902479 -2.0999621e-13 0)
(0.1902479 -1.7019433e-13 0)
(0.1902479 -2.0316536e-13 0)
(0.1902479 -1.7417128e-13 0)
(0.1902479 -2.1425162e-13 0)
(0.1902479 -1.6941633e-13 0)
(0.1902479 -1.8455253e-13 0)
(0.1902479 -1.5858846e-13 0)
(0.1902479 -2.6543059e-13 0)
(0.1902479 -2.5352595e-13 0)
(0.1902479 -1.6746945e-13 0)
(0.1902479 1.7883624e-14 0)
(0.59346672 0.2146733 0)
(0.54593347 0.075998401 0)
(0.39702192 0.03931229 0)
(0.34953974 0.01972055 0)
(0.30792187 0.010726729 0)
(0.28963523 0.0061583731 0)
(0.27651264 0.0034761828 0)
(0.26994405 0.0020291049 0)
(0.26565503 0.0011409915 0)
(0.26342423 0.00065140839 0)
(0.26206335 0.000356335 0)
(0.26136077 0.00019487537 0)
(0.26095907 0.00010129585 0)
(0.26076048 5.159287e-05 0)
(0.260656 2.4317181e-05 0)
(0.26060945 1.0644625e-05 0)
(0.26058866 3.7609217e-06 0)
(0.26058217 7.1175868e-07 0)
(0.26058122 -5.4256416e-07 0)
(0.26058278 -8.8415591e-07 0)
(0.2605848 -8.6447692e-07 0)
(0.26058673 -7.0546367e-07 0)
(0.26058825 -5.2966991e-07 0)
(0.26058939 -3.748313e-07 0)
(0.26059018 -2.5550044e-07 0)
(0.26059072 -1.686167e-07 0)
(0.26059108 -1.0862977e-07 0)
(0.2605913 -6.8404459e-08 0)
(0.26059144 -4.2257507e-08 0)
(0.26059153 -2.5605871e-08 0)
(0.26059159 -1.5239862e-08 0)
(0.26059162 -8.8991954e-09 0)
(0.26059163 -5.096557e-09 0)
(0.26059165 -2.8558991e-09 0)
(0.26059165 -1.5612459e-09 0)
(0.26059165 -8.2827475e-10 0)
(0.26059166 -4.2241375e-10 0)
(0.26059166 -2.0434682e-10 0)
(0.26059166 -9.0761751e-11 0)
(0.26059166 -3.4612185e-11 0)
(0.26059166 -8.3830707e-12 0)
(0.26059166 2.3648282e-12 0)
(0.26059166 5.9727948e-12 0)
(0.26059166 6.1963054e-12 0)
(0.26059166 5.2140012e-12 0)
(0.26059166 3.9430662e-12 0)
(0.26059166 2.7136657e-12 0)
(0.26059166 1.8652918e-12 0)
(0.26059166 1.1966945e-12 0)
(0.26059166 8.8573233e-13 0)
(0.26059166 5.3039556e-13 0)
(0.26059166 5.0153696e-13 0)
(0.26059166 3.7466906e-13 0)
(0.26059166 4.9394456e-13 0)
(0.26059166 3.6038581e-13 0)
(0.26059166 3.7746666e-13 0)
(0.26059166 2.3695367e-13 0)
(0.26059166 2.6504407e-13 0)
(0.26059166 8.2822531e-14 0)
(0.26059166 2.3659289e-13 0)
(0.26059166 1.2274556e-13 0)
(0.26059166 3.3722556e-13 0)
(0.26059166 1.6690822e-13 0)
(0.26059166 3.0504153e-13 0)
(0.26059166 6.5005157e-14 0)
(0.26059166 1.5852449e-13 0)
(0.26059166 -1.5774696e-14 0)
(0.26059166 9.7948035e-14 0)
(0.26059166 6.7268755e-15 0)
(0.26059166 9.8560876e-14 0)
(0.26059166 -9.8891088e-14 0)
(0.26059166 -1.0121882e-15 0)
(0.26059166 -1.7487469e-13 0)
(0.26059166 -6.3970069e-14 0)
(0.26059166 -2.0939391e-13 0)
(0.26059166 -9.6422286e-14 0)
(0.26059166 -2.1302123e-13 0)
(0.26059166 -1.148869e-13 0)
(0.26059166 -2.215297e-13 0)
(0.26059166 -1.3137584e-13 0)
(0.26059166 -1.9831865e-13 0)
(0.26059166 -9.2507588e-14 0)
(0.26059166 -1.6057445e-13 0)
(0.26059166 -1.1669788e-13 0)
(0.26059166 -2.5390788e-13 0)
(0.26059166 -2.6726982e-13 0)
(0.26059166 -3.7756348e-13 0)
(0.26059166 -3.1861381e-13 0)
(0.26059166 -3.4975524e-13 0)