/*--------------------------------*- C++ -*----------------------------------*\
| =========                 |                                                 |
| \\      /  F ield         | OpenFOAM: The Open Source CFD Toolbox           |
|  \\    /   O peration     | Version:  2206                                  |
|   \\  /    A nd           | Website:  www.openfoam.com                      |
|    \\/     M anipulation  |                                                 |
\*---------------------------------------------------------------------------*/
FoamFile
{
    version     2.0;
    format      ascii;
    arch        "LSB;label=32;scalar=64";
    class       surfaceScalarField;
    location    "26";
    object      phi;
}
// * * * * * * * * * * * * * * * * * * * * * * * * * * * * * * * * * * * * * //

dimensions      [0 3 -1 0 0 0 0];

oriented        oriented;

internalField   nonuniform List<scalar> 
29650
(
6.0867649e-05
0.00020579916
3.271817e-05
2.8149477e-05
2.4599022e-05
8.1191307e-06
2.0417849e-05
4.1811428e-06
1.8552178e-05
1.8656362e-06
1.73737e-05
1.1784425e-06
1.6781661e-05
5.9200746e-07
1.6412314e-05
3.6932349e-07
1.622082e-05
1.9148333e-07
1.6106685e-05
1.1413563e-07
1.6048258e-05
5.8436558e-08
1.6015474e-05
3.279499e-08
1.5999542e-05
1.5941941e-08
1.5991376e-05
8.1723662e-09
1.5987889e-05
3.4910657e-09
1.598644e-05
1.4507977e-09
1.5986091e-05
3.5074197e-10
1.5986138e-05
-4.7588027e-11
1.598635e-05
-2.1128046e-10
1.5986569e-05
-2.2035732e-10
1.5986762e-05
-1.9288152e-10
1.5986908e-05
-1.4669786e-10
1.5987014e-05
-1.0659647e-10
1.5987087e-05
-7.3065477e-11
1.5987136e-05
-4.884208e-11
1.5987167e-05
-3.1556817e-11
1.5987187e-05
-2.0032795e-11
1.59872e-05
-1.2414306e-11
1.5987208e-05
-7.5696661e-12
1.5987212e-05
-4.5149004e-12
1.5987215e-05
-2.6464635e-12
1.5987216e-05
-1.5196883e-12
1.5987217e-05
-8.5824444e-13
1.5987218e-05
-4.7384376e-13
1.5987218e-05
-2.5461994e-13
1.5987218e-05
-1.3207192e-13
1.5987218e-05
-6.6300708e-14
1.5987218e-05
-3.2778774e-14
1.5987218e-05
-1.6259757e-14
1.5987218e-05
-6.8293298e-15
1.5987218e-05
-1.2450865e-15
1.5987218e-05
1.6045393e-15
1.5987218e-05
1.3488267e-15
1.5987218e-05
1.2268152e-15
1.5987218e-05
1.5843758e-15
1.5987218e-05
3.1814595e-15
1.5987218e-05
2.8954619e-15
1.5987218e-05
1.5989704e-15
1.5987218e-05
-1.0392072e-15
1.5987218e-05
-2.2298592e-15
1.5987218e-05
-3.4405426e-15
1.5987218e-05
-3.3470321e-15
1.5987218e-05
-3.2433258e-15
1.5987218e-05
-1.8404588e-15
1.5987218e-05
-1.0317955e-15
1.5987218e-05
-4.6239573e-17
1.5987218e-05
3.0497798e-16
1.5987218e-05
8.8888847e-16
1.5987218e-05
2.6474989e-16
1.5987218e-05
3.4779816e-16
1.5987218e-05
-7.9833399e-17
1.5987218e-05
-8.967884e-17
1.5987218e-05
-2.3618252e-18
1.5987218e-05
2.0875452e-16
1.5987218e-05
6.559386e-16
1.5987218e-05
8.2775622e-16
1.5987218e-05
8.1063674e-16
1.5987218e-05
3.0676388e-16
1.5987218e-05
-1.1254382e-16
1.5987218e-05
-3.9139573e-16
1.5987218e-05
-5.1860435e-16
1.5987218e-05
-5.7255256e-16
1.5987218e-05
-6.5453729e-16
1.5987218e-05
-6.6181743e-16
1.5987218e-05
-4.8180238e-16
1.5987218e-05
-2.9522786e-16
1.5987218e-05
-4.1184639e-16
1.5987218e-05
-1.0109415e-15
1.5987218e-05
-1.9665543e-15
1.5987218e-05
-2.6428815e-15
1.5987218e-05
-2.7030392e-15
1.5987218e-05
-1.9499746e-15
1.5987218e-05
-9.5633465e-16
1.5987218e-05
4.6158919e-17
1.5987218e-05
3.5962221e-16
1.5987218e-05
7.3203467e-16
1.5987218e-05
4.8301574e-16
1.5987218e-05
6.6325615e-16
1.5987218e-05
3.3952188e-16
1.5987218e-05
6.130764e-16
1.5987218e-05
3.3598504e-16
1.5987218e-05
6.7291062e-16
1.5987218e-05
3.2084906e-16
1.5987218e-05
6.2819264e-16
1.5987218e-05
2.659301e-16
1.5987218e-05
7.4958556e-16
1.5987218e-05
3.5571516e-16
1.5987218e-05
5.4034354e-16
1.5987218e-05
-3.2357137e-16
1.5987218e-05
8.4712723e-17
1.5987218e-05
1.3460443e-16
1.5987218e-05
1.5362703e-15
1.5987218e-05
1.994594e-15
1.5987218e-05
2.9375581e-15
1.5987218e-05
1.9590901e-15
1.5987218e-05
9.7670326e-16
1.5987218e-05
-9.288458e-16
1.5987218e-05
-1.5315735e-15
1.5987218e-05
-1.9916484e-15
1.5987218e-05
-1.3929904e-15
1.5987218e-05
-7.9298397e-16
1.5987218e-05
3.9688569e-16
1.5987218e-05
6.0106701e-16
1.5987218e-05
9.5183771e-16
1.5987218e-05
1.9655178e-16
1.5987218e-05
7.5055788e-16
1.5987218e-05
9.5830769e-16
1.5987218e-05
2.1675042e-15
1.5987218e-05
2.2026623e-15
1.5987218e-05
2.2229174e-15
1.5987218e-05
9.34938e-16
1.5987218e-05
5.471502e-17
1.5987218e-05
-8.7106403e-16
1.5987218e-05
-9.4660348e-16
1.5987218e-05
-1.0361408e-15
1.5987218e-05
-7.6201434e-16
1.5987218e-05
-7.4153558e-16
1.5987218e-05
-6.0233939e-16
1.5987218e-05
-6.7688126e-16
1.5987218e-05
-6.4034954e-16
1.5987218e-05
-7.1811623e-16
1.5987218e-05
-6.97013e-16
1.5987218e-05
-7.4019269e-16
1.5987218e-05
-7.278073e-16
1.5987218e-05
-7.5485526e-16
1.5987218e-05
-7.5742118e-16
1.5987218e-05
-7.7319619e-16
1.5987218e-05
-7.8590226e-16
1.5987218e-05
-7.9606399e-16
1.5987218e-05
-8.1846995e-16
1.5987218e-05
-8.1796578e-16
1.5987218e-05
-8.3444392e-16
1.5987218e-05
-8.3790404e-16
1.5987218e-05
-8.7135209e-16
1.5987218e-05
-8.3776598e-16
1.5987218e-05
-8.0314711e-16
1.5987218e-05
-7.4005967e-16
1.5987218e-05
-7.9827037e-16
1.5987218e-05
-8.0267617e-16
1.5987218e-05
-7.6112916e-16
1.5987218e-05
-4.8668048e-16
1.5987218e-05
-3.6517602e-16
1.5987218e-05
-6.5172229e-16
1.5987218e-05
-1.4178057e-15
1.5987218e-05
-2.2222038e-15
1.5987218e-05
-2.7070677e-15
1.5987218e-05
-2.2189172e-15
1.5987218e-05
-1.2939104e-15
1.5987218e-05
-1.342296e-16
1.5987218e-05
5.4618304e-16
1.5987218e-05
8.8094491e-16
1.5987218e-05
8.9489571e-16
1.5987218e-05
8.5202334e-16
1.5987218e-05
7.4800518e-16
1.5987218e-05
7.8271289e-16
1.5987218e-05
7.9680241e-16
1.5987218e-05
8.38715e-16
1.5987218e-05
8.5818731e-16
1.5987218e-05
8.7878188e-16
1.5987218e-05
8.7637194e-16
1.5987218e-05
8.8038949e-16
1.5987218e-05
8.7050758e-16
1.5987218e-05
8.7607383e-16
1.5987218e-05
8.6824468e-16
1.5987218e-05
8.8858636e-16
1.5987218e-05
8.7312441e-16
1.5987218e-05
9.1416752e-16
1.5987218e-05
8.8398375e-16
1.5987218e-05
9.2567254e-16
1.5987218e-05
8.9837384e-16
1.5987218e-05
9.3510641e-16
1.5987218e-05
9.2271944e-16
1.5987218e-05
9.3494808e-16
1.5987218e-05
9.0771846e-16
1.5987218e-05
9.5756211e-16
1.5987218e-05
9.7467243e-16
1.5987218e-05
1.0324186e-15
1.5987218e-05
9.9798855e-16
1.5987218e-05
9.9588183e-16
1.5987218e-05
9.2922021e-16
1.5987218e-05
9.8419721e-16
1.5987218e-05
1.0092521e-15
1.5987218e-05
1.1061979e-15
1.5987218e-05
9.4810332e-16
1.5987218e-05
7.8734719e-16
1.5987218e-05
6.3459398e-16
1.5987218e-05
1.0799942e-15
1.5987218e-05
1.7547335e-15
1.5987218e-05
2.5582828e-15
1.5987218e-05
2.794603e-15
1.5987218e-05
2.2430408e-15
1.5987218e-05
9.9844251e-16
1.5987218e-05
-1.2427235e-16
1.5987218e-05
-7.915593e-16
1.5987218e-05
-7.5219839e-16
1.5987218e-05
-6.9301744e-16
1.5987218e-05
-8.3843104e-16
1.5987218e-05
-1.5519716e-15
1.5987218e-05
-2.3037431e-15
1.5987218e-05
-2.7413577e-15
1.5987218e-05
-2.3114537e-15
1.5987218e-05
-1.3678443e-15
1.5987218e-05
-2.0100063e-16
1.5987218e-05
4.5809504e-16
1.5987218e-05
9.2956701e-16
1.5987218e-05
9.4304173e-16
1.5987218e-05
8.7307606e-16
1.5987218e-05
5.3801365e-16
1.5987218e-05
4.6759002e-16
1.5987218e-05
7.4166159e-16
1.5987218e-05
1.5834873e-15
1.5987218e-05
2.3794019e-15
1.5987218e-05
2.8581642e-15
1.5987218e-05
2.4638263e-15
1.5987218e-05
1.4299536e-15
1.5987218e-05
2.5851044e-16
1.5987218e-05
-5.6052625e-16
1.5987218e-05
-1.0217371e-15
1.5987218e-05
-9.4196694e-16
1.5987218e-05
-7.2996857e-16
1.5987218e-05
-3.8369861e-16
1.5987218e-05
-6.3943616e-16
1.5987218e-05
-1.3104573e-15
1.5987218e-05
-2.3188004e-15
1.5987218e-05
-2.7163911e-15
1.5987218e-05
-2.7449573e-15
1.5987218e-05
-1.8711441e-15
1.5987218e-05
-9.4460004e-16
1.5987218e-05
2.5389866e-16
1.5987218e-05
1.3088334e-15
1.5987218e-05
2.2533465e-15
1.5987218e-05
2.7060768e-15
1.5987218e-05
2.2712448e-15
1.5987218e-05
1.2116057e-15
1.5987218e-05
6.0934121e-17
1.5987218e-05
-6.0607166e-16
1.5987218e-05
-6.5075831e-16
1.5987218e-05
-6.711567e-16
1.5987218e-05
-9.6717721e-16
1.5987218e-05
-1.743604e-15
1.5987218e-05
-2.5078777e-15
1.5987218e-05
-2.8639192e-15
1.5987218e-05
-2.33856e-15
1.5987218e-05
-1.2753724e-15
1.5987218e-05
-2.2228563e-16
1.5987218e-05
4.3107895e-16
1.5987218e-05
6.6852907e-16
1.5987218e-05
6.8505125e-16
1.5987218e-05
5.5871654e-16
1.5987218e-05
5.5608516e-16
1.5987218e-05
5.3938769e-16
1.5987218e-05
6.5572324e-16
1.5987218e-05
5.0529077e-16
1.5987218e-05
3.6132378e-16
1.5987218e-05
1.9387868e-16
1.5987218e-05
6.0009035e-16
1.5987218e-05
1.313698e-15
1.5987218e-05
2.196245e-15
1.5987218e-05
2.3931153e-15
1.5987218e-05
2.0532329e-15
1.5987218e-05
1.031186e-15
1.5987218e-05
3.8389128e-16
1.5987218e-05
-3.1135851e-16
1.5987218e-05
-6.7609724e-16
1.5987218e-05
-1.448317e-15
1.5987218e-05
-2.0631573e-15
1.5987218e-05
-2.4268773e-15
1.5987218e-05
-1.990982e-15
1.5987218e-05
-9.9159347e-16
1.5987218e-05
1.2084965e-16
1.5987218e-05
8.1561194e-16
1.5987218e-05
1.1985553e-15
1.5987218e-05
1.1557014e-15
1.5987218e-05
1.079322e-15
1.5987218e-05
8.9231129e-16
1.5987218e-05
8.6118968e-16
1.5987218e-05
8.3385347e-16
1.5987218e-05
9.4190746e-16
1.5987218e-05
9.4234583e-16
1.5987218e-05
1.0205604e-15
1.5987218e-05
9.4137544e-16
1.5987218e-05
9.1813324e-16
1.5987218e-05
8.9754264e-16
1.5987218e-05
1.0603978e-15
1.5987218e-05
9.8038435e-16
1.5987218e-05
4.9062221e-16
1.5987218e-05
1.383709e-16
1.5987218e-05
1.1090881e-15
1.5987218e-05
2.6269005e-15
1.9607944e-15
0.00014027132
0.00033219465
9.2549245e-05
7.5871552e-05
7.0338073e-05
3.0330285e-05
5.9620314e-05
1.4898874e-05
5.4019643e-05
7.4662747e-06
5.0795344e-05
4.4027072e-06
4.9011049e-05
2.3762708e-06
4.7964744e-05
1.4156051e-06
4.7384384e-05
7.7183304e-07
4.7052233e-05
4.4628651e-07
4.6872682e-05
2.3799572e-07
4.677453e-05
1.3095715e-07
4.6724187e-05
6.6294545e-08
4.6698685e-05
3.3680322e-08
4.6686925e-05
1.5255236e-08
4.6681893e-05
6.4847275e-09
4.6680252e-05
1.992481e-09
4.6680058e-05
1.4657295e-10
4.6680445e-05
-5.98115e-10
4.6680961e-05
-7.3730763e-10
4.6681443e-05
-6.7483037e-10
4.6681826e-05
-5.3054324e-10
4.668211e-05
-3.9101706e-10
4.6682309e-05
-2.7225163e-10
4.6682444e-05
-1.8360623e-10
4.6682532e-05
-1.1989114e-10
4.6682589e-05
-7.6639584e-11
4.6682624e-05
-4.7878771e-11
4.6682646e-05
-2.9378996e-11
4.6682659e-05
-1.7664088e-11
4.6682667e-05
-1.0431483e-11
4.6682672e-05
-6.0416071e-12
4.6682674e-05
-3.4360666e-12
4.6682676e-05
-1.9113638e-12
4.6682676e-05
-1.035742e-12
4.6682677e-05
-5.4348033e-13
4.6682677e-05
-2.7454912e-13
4.6682677e-05
-1.3402617e-13
4.6682677e-05
-6.2390311e-14
4.6682677e-05
-2.4848531e-14
4.6682677e-05
-4.8360787e-15
4.6682677e-05
4.0542925e-15
4.6682677e-05
5.154504e-15
4.6682677e-05
4.5934698e-15
4.6682677e-05
5.0795123e-15
4.6682677e-05
7.4552221e-15
4.6682677e-05
6.7876667e-15
4.6682677e-05
3.5423264e-15
4.6682677e-05
-1.3759942e-15
4.6682677e-05
-4.5082927e-15
4.6682677e-05
-6.3605937e-15
4.6682677e-05
-6.8286924e-15
4.6682677e-05
-6.0112643e-15
4.6682677e-05
-3.5892516e-15
4.6682677e-05
-1.6534631e-15
4.6682677e-05
-1.3793613e-16
4.6682677e-05
6.6030485e-16
4.6682677e-05
1.0188535e-15
4.6682677e-05
6.4927191e-16
4.6682677e-05
5.1582455e-17
4.6682677e-05
-1.0423467e-16
4.6682677e-05
-5.9624966e-16
4.6682677e-05
5.2787291e-17
4.6682677e-05
2.1856567e-16
4.6682677e-05
1.4856599e-15
4.6682677e-05
1.8161284e-15
4.6682677e-05
1.9291156e-15
4.6682677e-05
9.1684769e-16
4.6682677e-05
1.5679773e-16
4.6682677e-05
-8.1741305e-16
4.6682677e-05
-6.5272872e-16
4.6682677e-05
-1.3575026e-15
4.6682677e-05
-9.9310576e-16
4.6682677e-05
-1.482456e-15
4.6682677e-05
-6.6812934e-16
4.6682677e-05
-7.2160557e-16
4.6682677e-05
-4.6545239e-16
4.6682677e-05
-1.9655884e-15
4.6682677e-05
-3.4086103e-15
4.6682677e-05
-5.259626e-15
4.6682677e-05
-4.9426271e-15
4.6682677e-05
-4.0452596e-15
4.6682677e-05
-1.4788425e-15
4.6682677e-05
-1.4112124e-16
4.6682677e-05
1.1550486e-15
4.6682677e-05
1.1643572e-15
4.6682677e-05
1.4054927e-15
4.6682677e-05
1.0160635e-15
4.6682677e-05
1.1394825e-15
4.6682677e-05
9.0715477e-16
4.6682677e-05
1.1499963e-15
4.6682677e-05
1.0090476e-15
4.6682677e-05
1.1486492e-15
4.6682677e-05
9.0566418e-16
4.6682677e-05
1.0525378e-15
4.6682677e-05
1.0687815e-15
4.6682677e-05
1.2818019e-15
4.6682677e-05
7.0319855e-16
4.6682677e-05
8.5592558e-17
4.6682677e-05
-3.0304104e-16
4.6682677e-05
6.9985453e-16
4.6682677e-05
2.2518759e-15
4.6682677e-05
4.3853529e-15
4.6682677e-05
5.280778e-15
4.6682677e-05
4.4986281e-15
4.6682677e-05
1.6136381e-15
4.6682677e-05
-1.1560696e-15
4.6682677e-05
-3.0547981e-15
4.6682677e-05
-2.9605022e-15
4.6682677e-05
-2.1938385e-15
4.6682677e-05
-7.1718462e-16
4.6682677e-05
1.1854179e-15
4.6682677e-05
1.7617115e-15
4.6682677e-05
1.3219671e-15
4.6682677e-05
1.0812508e-15
4.6682677e-05
7.3672282e-16
4.6682677e-05
2.2714567e-15
4.6682677e-05
3.6264476e-15
4.6682677e-05
4.6925362e-15
4.6682677e-05
4.1259523e-15
4.6682677e-05
2.1321996e-15
4.6682677e-05
-8.3979802e-17
4.6682677e-05
-1.5126138e-15
4.6682677e-05
-2.0262106e-15
4.6682677e-05
-1.8689236e-15
4.6682677e-05
-1.6005887e-15
4.6682677e-05
-1.3187727e-15
4.6682677e-05
-1.2608422e-15
4.6682677e-05
-1.2206476e-15
4.6682677e-05
-1.317297e-15
4.6682677e-05
-1.3212339e-15
4.6682677e-05
-1.4069976e-15
4.6682677e-05
-1.3784317e-15
4.6682677e-05
-1.4470567e-15
4.6682677e-05
-1.4220235e-15
4.6682677e-05
-1.4929197e-15
4.6682677e-05
-1.4692824e-15
4.6682677e-05
-1.5352973e-15
4.6682677e-05
-1.5229655e-15
4.6682677e-05
-1.5874379e-15
4.6682677e-05
-1.5719371e-15
4.6682677e-05
-1.6129072e-15
4.6682677e-05
-1.6122473e-15
4.6682677e-05
-1.6742199e-15
4.6682677e-05
-1.6237592e-15
4.6682677e-05
-1.5473671e-15
4.6682677e-05
-1.4373603e-15
4.6682677e-05
-1.5124108e-15
4.6682677e-05
-1.5704846e-15
4.6682677e-05
-1.4401486e-15
4.6682677e-05
-9.3991964e-16
4.6682677e-05
-6.5942166e-16
4.6682677e-05
-1.2030337e-15
4.6682677e-05
-2.5825615e-15
4.6682677e-05
-4.3386321e-15
4.6682677e-05
-5.2573372e-15
4.6682677e-05
-4.4184304e-15
4.6682677e-05
-2.6133306e-15
4.6682677e-05
-2.9501013e-16
4.6682677e-05
1.0356479e-15
4.6682677e-05
1.6742207e-15
4.6682677e-05
1.7222874e-15
4.6682677e-05
1.60606e-15
4.6682677e-05
1.4304438e-15
4.6682677e-05
1.4959722e-15
4.6682677e-05
1.494516e-15
4.6682677e-05
1.5849357e-15
4.6682677e-05
1.6180001e-15
4.6682677e-05
1.6618259e-15
4.6682677e-05
1.6474045e-15
4.6682677e-05
1.6633298e-15
4.6682677e-05
1.6325729e-15
4.6682677e-05
1.6490495e-15
4.6682677e-05
1.6265152e-15
4.6682677e-05
1.6657818e-15
4.6682677e-05
1.6371329e-15
4.6682677e-05
1.7029353e-15
4.6682677e-05
1.6591186e-15
4.6682677e-05
1.7141853e-15
4.6682677e-05
1.6788859e-15
4.6682677e-05
1.7345244e-15
4.6682677e-05
1.7169053e-15
4.6682677e-05
1.7424439e-15
4.6682677e-05
1.6804621e-15
4.6682677e-05
1.790813e-15
4.6682677e-05
1.7997033e-15
4.6682677e-05
1.9301996e-15
4.6682677e-05
1.8421461e-15
4.6682677e-05
1.848818e-15
4.6682677e-05
1.6989518e-15
4.6682677e-05
1.8035834e-15
4.6682677e-05
1.8475212e-15
4.6682677e-05
2.0406679e-15
4.6682677e-05
1.7695521e-15
4.6682677e-05
1.4179154e-15
4.6682677e-05
1.1153303e-15
4.6682677e-05
1.9290431e-15
4.6682677e-05
3.2143977e-15
4.6682677e-05
4.8665528e-15
4.6682677e-05
5.4217701e-15
4.6682677e-05
4.4065935e-15
4.6682677e-05
2.0569575e-15
4.6682677e-05
-2.2442028e-16
4.6682677e-05
-1.4963978e-15
4.6682677e-05
-1.4144876e-15
4.6682677e-05
-1.2403168e-15
4.6682677e-05
-1.4447543e-15
4.6682677e-05
-2.8062643e-15
4.6682677e-05
-4.2950017e-15
4.6682677e-05
-5.2594266e-15
4.6682677e-05
-4.493349e-15
4.6682677e-05
-2.6503088e-15
4.6682677e-05
-3.9860371e-16
4.6682677e-05
9.3408393e-16
4.6682677e-05
1.7377223e-15
4.6682677e-05
1.8534628e-15
4.6682677e-05
1.6303473e-15
4.6682677e-05
1.0231276e-15
4.6682677e-05
7.8723762e-16
4.6682677e-05
1.3161795e-15
4.6682677e-05
2.8657441e-15
4.6682677e-05
4.4901177e-15
4.6682677e-05
5.5128393e-15
4.6682677e-05
4.803697e-15
4.6682677e-05
2.8113054e-15
4.6682677e-05
5.4292314e-16
4.6682677e-05
-1.0568289e-15
4.6682677e-05
-1.915249e-15
4.6682677e-05
-1.8012687e-15
4.6682677e-05
-1.3353883e-15
4.6682677e-05
-6.7140879e-16
4.6682677e-05
-1.0411041e-15
4.6682677e-05
-2.4354881e-15
4.6682677e-05
-4.2568994e-15
4.6682677e-05
-5.2829328e-15
4.6682677e-05
-5.2687195e-15
4.6682677e-05
-3.6445404e-15
4.6682677e-05
-1.8569786e-15
4.6682677e-05
4.8420577e-16
4.6682677e-05
2.415814e-15
4.6682677e-05
4.4133568e-15
4.6682677e-05
5.2504412e-15
4.6682677e-05
4.5367087e-15
4.6682677e-05
2.4961748e-15
4.6682677e-05
1.8505436e-16
4.6682677e-05
-1.0782177e-15
4.6682677e-05
-1.1746327e-15
4.6682677e-05
-1.1312105e-15
4.6682677e-05
-1.6504785e-15
4.6682677e-05
-3.0763107e-15
4.6682677e-05
-4.6689048e-15
4.6682677e-05
-5.4103714e-15
4.6682677e-05
-4.4389441e-15
4.6682677e-05
-2.418135e-15
4.6682677e-05
-3.196702e-16
4.6682677e-05
9.4283995e-16
4.6682677e-05
1.3572498e-15
4.6682677e-05
1.3997136e-15
4.6682677e-05
1.1067164e-15
4.6682677e-05
1.0996034e-15
4.6682677e-05
1.0481173e-15
4.6682677e-05
1.2896266e-15
4.6682677e-05
1.0403262e-15
4.6682677e-05
7.6024388e-16
4.6682677e-05
4.056183e-16
4.6682677e-05
1.1677029e-15
4.6682677e-05
2.5085981e-15
4.6682677e-05
4.3076597e-15
4.6682677e-05
4.7681798e-15
4.6682677e-05
4.0892736e-15
4.6682677e-05
2.1314355e-15
4.6682677e-05
7.4913621e-16
4.6682677e-05
-4.8334079e-16
4.6682677e-05
-1.2419153e-15
4.6682677e-05
-2.7190563e-15
4.6682677e-05
-3.9802655e-15
4.6682677e-05
-4.8584733e-15
4.6682677e-05
-4.0513854e-15
4.6682677e-05
-2.0861494e-15
4.6682677e-05
5.8007082e-17
4.6682677e-05
1.4965448e-15
4.6682677e-05
2.1877473e-15
4.6682677e-05
2.1602712e-15
4.6682677e-05
1.9611837e-15
4.6682677e-05
1.6362547e-15
4.6682677e-05
1.5769564e-15
4.6682677e-05
1.5699518e-15
4.6682677e-05
1.7197932e-15
4.6682677e-05
1.7900652e-15
4.6682677e-05
1.884234e-15
4.6682677e-05
1.798839e-15
4.6682677e-05
1.6968426e-15
4.6682677e-05
1.6892173e-15
4.6682677e-05
1.956545e-15
4.6682677e-05
1.9180452e-15
4.6682677e-05
9.7398336e-16
4.6682677e-05
1.841265e-16
4.6682677e-05
1.8155561e-15
4.6682677e-05
5.0787673e-15
4.1256967e-15
0.00019469214
0.0004041693
0.00014360962
0.00012695407
0.00011230147
6.1638424e-05
9.6619294e-05
3.0581052e-05
8.7762221e-05
1.632335e-05
8.2755406e-05
9.4095241e-06
7.9871701e-05
5.2599752e-06
7.8206034e-05
3.0812694e-06
7.7256668e-05
1.7211915e-06
7.6718194e-05
9.8475219e-07
7.6420462e-05
5.3572123e-07
7.6258218e-05
2.9319696e-07
7.6172993e-05
1.5151769e-07
7.61296e-05
7.7072725e-08
7.6108851e-05
3.6004202e-08
7.6099695e-05
1.5640778e-08
7.6096324e-05
5.3638765e-09
7.6095587e-05
8.8390874e-10
7.6095937e-05
-9.4688062e-10
7.6096611e-05
-1.411553e-09
7.609729e-05
-1.3539313e-09
7.6097854e-05
-1.0939061e-09
7.609828e-05
-8.1714975e-10
7.6098584e-05
-5.7580645e-10
7.6098791e-05
-3.9131713e-10
7.6098929e-05
-2.5749909e-10
7.6099018e-05
-1.6552279e-10
7.6099074e-05
-1.0400491e-10
7.6099108e-05
-6.4127348e-11
7.609913e-05
-3.8770085e-11
7.6099142e-05
-2.3019932e-11
7.609915e-05
-1.340805e-11
7.6099154e-05
-7.663323e-12
7.6099156e-05
-4.285795e-12
7.6099157e-05
-2.3376716e-12
7.6099158e-05
-1.2360891e-12
7.6099158e-05
-6.2951318e-13
7.6099159e-05
-3.0643604e-13
7.6099159e-05
-1.4013562e-13
7.6099159e-05
-5.4943719e-14
7.6099159e-05
-1.2642733e-14
7.6099159e-05
5.9665332e-15
7.6099159e-05
9.7063334e-15
7.6099159e-05
9.8532591e-15
7.6099159e-05
9.3396671e-15
7.6099159e-05
1.0528981e-14
7.6099159e-05
7.9994789e-15
7.6099159e-05
3.7532383e-15
7.6099159e-05
-2.3837101e-15
7.6099159e-05
-5.3556961e-15
7.6099159e-05
-7.7913991e-15
7.6099159e-05
-7.9620922e-15
7.6099159e-05
-7.7796337e-15
7.6099159e-05
-5.1169061e-15
7.6099159e-05
-3.3717054e-15
7.6099159e-05
-1.3450718e-15
7.6099159e-05
-4.5790478e-16
7.6099159e-05
3.9035933e-16
7.6099159e-05
-7.0315257e-16
7.6099159e-05
-9.4028879e-16
7.6099159e-05
-1.6021334e-15
7.6099159e-05
-1.8171326e-15
7.6099159e-05
-1.412604e-15
7.6099159e-05
-1.0032969e-15
7.6099159e-05
1.152154e-16
7.6099159e-05
6.2906763e-16
7.6099159e-05
7.8549485e-16
7.6099159e-05
-9.393727e-17
7.6099159e-05
-8.191437e-16
7.6099159e-05
-1.5379563e-15
7.6099159e-05
-1.6765887e-15
7.6099159e-05
-2.0575455e-15
7.6099159e-05
-2.0047469e-15
7.6099159e-05
-2.2052405e-15
7.6099159e-05
-1.6503224e-15
7.6099159e-05
-1.5367127e-15
7.6099159e-05
-1.7288411e-15
7.6099159e-05
-3.136711e-15
7.6099159e-05
-4.7861681e-15
7.6099159e-05
-6.0008098e-15
7.6099159e-05
-5.4427315e-15
7.6099159e-05
-3.6778118e-15
7.6099159e-05
-1.1781195e-15
7.6099159e-05
8.3338939e-16
7.6099159e-05
1.8874754e-15
7.6099159e-05
2.4921098e-15
7.6099159e-05
2.316137e-15
7.6099159e-05
2.4216279e-15
7.6099159e-05
2.0244636e-15
7.6099159e-05
2.2800395e-15
7.6099159e-05
1.9733397e-15
7.6099159e-05
2.3570172e-15
7.6099159e-05
1.9098037e-15
7.6099159e-05
2.2196042e-15
7.6099159e-05
1.7811125e-15
7.6099159e-05
2.4019382e-15
7.6099159e-05
1.8656154e-15
7.6099159e-05
1.8470379e-15
7.6099159e-05
5.5993939e-16
7.6099159e-05
1.1659032e-15
7.6099159e-05
1.7690207e-15
7.6099159e-05
4.1938502e-15
7.6099159e-05
5.2714198e-15
7.6099159e-05
6.4139891e-15
7.6099159e-05
4.3547089e-15
7.6099159e-05
1.8163167e-15
7.6099159e-05
-1.9747468e-15
7.6099159e-05
-3.6471058e-15
7.6099159e-05
-4.269278e-15
7.6099159e-05
-2.9550227e-15
7.6099159e-05
-1.1868092e-15
7.6099159e-05
1.4896425e-15
7.6099159e-05
2.189702e-15
7.6099159e-05
2.6751551e-15
7.6099159e-05
1.7835716e-15
7.6099159e-05
2.4208897e-15
7.6099159e-05
3.2087694e-15
7.6099159e-05
4.9768631e-15
7.6099159e-05
4.9576338e-15
7.6099159e-05
4.3830399e-15
7.6099159e-05
1.6388585e-15
7.6099159e-05
-4.5948603e-16
7.6099159e-05
-2.408544e-15
7.6099159e-05
-2.892393e-15
7.6099159e-05
-3.0833958e-15
7.6099159e-05
-2.6733229e-15
7.6099159e-05
-2.5248853e-15
7.6099159e-05
-2.2950701e-15
7.6099159e-05
-2.3464469e-15
7.6099159e-05
-2.3224778e-15
7.6099159e-05
-2.4150182e-15
7.6099159e-05
-2.4258741e-15
7.6099159e-05
-2.4685101e-15
7.6099159e-05
-2.486131e-15
7.6099159e-05
-2.5093432e-15
7.6099159e-05
-2.5454531e-15
7.6099159e-05
-2.5555483e-15
7.6099159e-05
-2.607449e-15
7.6099159e-05
-2.618171e-15
7.6099159e-05
-2.681696e-15
7.6099159e-05
-2.6792267e-15
7.6099159e-05
-2.7286555e-15
7.6099159e-05
-2.7373242e-15
7.6099159e-05
-2.8010849e-15
7.6099159e-05
-2.723137e-15
7.6099159e-05
-2.6441936e-15
7.6099159e-05
-2.5299709e-15
7.6099159e-05
-2.6438814e-15
7.6099159e-05
-2.6424518e-15
7.6099159e-05
-2.4932238e-15
7.6099159e-05
-1.9421979e-15
7.6099159e-05
-1.7828463e-15
7.6099159e-05
-2.5140131e-15
7.6099159e-05
-4.0273173e-15
7.6099159e-05
-5.4950981e-15
7.6099159e-05
-6.0132577e-15
7.6099159e-05
-4.5372731e-15
7.6099159e-05
-2.3640108e-15
7.6099159e-05
2.161973e-16
7.6099159e-05
1.7505667e-15
7.6099159e-05
2.6015838e-15
7.6099159e-05
2.7743847e-15
7.6099159e-05
2.7624239e-15
7.6099159e-05
2.5648037e-15
7.6099159e-05
2.625153e-15
7.6099159e-05
2.6019602e-15
7.6099159e-05
2.6771494e-15
7.6099159e-05
2.7009259e-15
7.6099159e-05
2.7538616e-15
7.6099159e-05
2.7453306e-15
7.6099159e-05
2.7708878e-15
7.6099159e-05
2.7479985e-15
7.6099159e-05
2.7723739e-15
7.6099159e-05
2.7501361e-15
7.6099159e-05
2.8030146e-15
7.6099159e-05
2.7624112e-15
7.6099159e-05
2.8506873e-15
7.6099159e-05
2.7792566e-15
7.6099159e-05
2.8631945e-15
7.6099159e-05
2.8055187e-15
7.6099159e-05
2.8817121e-15
7.6099159e-05
2.8478292e-15
7.6099159e-05
2.873293e-15
7.6099159e-05
2.8104979e-15
7.6099159e-05
2.9319902e-15
7.6099159e-05
2.9412596e-15
7.6099159e-05
3.0626699e-15
7.6099159e-05
2.9583982e-15
7.6099159e-05
2.9627425e-15
7.6099159e-05
2.8180566e-15
7.6099159e-05
2.9599036e-15
7.6099159e-05
3.0006337e-15
7.6099159e-05
3.1787161e-15
7.6099159e-05
2.8195955e-15
7.6099159e-05
2.5284673e-15
7.6099159e-05
2.3419385e-15
7.6099159e-05
3.3954632e-15
7.6099159e-05
4.7191971e-15
7.6099159e-05
6.1053285e-15
7.6099159e-05
6.1112205e-15
7.6099159e-05
4.4710467e-15
7.6099159e-05
1.6312226e-15
7.6099159e-05
-8.6213668e-16
7.6099159e-05
-2.3499913e-15
7.6099159e-05
-2.4147417e-15
7.6099159e-05
-2.4825369e-15
7.6099159e-05
-2.8948293e-15
7.6099159e-05
-4.3303734e-15
7.6099159e-05
-5.5721483e-15
7.6099159e-05
-5.9875147e-15
7.6099159e-05
-4.6125489e-15
7.6099159e-05
-2.3488596e-15
7.6099159e-05
2.2482752e-16
7.6099159e-05
1.7287008e-15
7.6099159e-05
2.7998462e-15
7.6099159e-05
2.9216488e-15
7.6099159e-05
2.7604765e-15
7.6099159e-05
2.1153858e-15
7.6099159e-05
2.0408657e-15
7.6099159e-05
2.7116355e-15
7.6099159e-05
4.3855785e-15
7.6099159e-05
5.7900599e-15
7.6099159e-05
6.3467596e-15
7.6099159e-05
5.0437597e-15
7.6099159e-05
2.5751593e-15
7.6099159e-05
-2.4472393e-17
7.6099159e-05
-1.8630649e-15
7.6099159e-05
-2.9175217e-15
7.6099159e-05
-2.8143522e-15
7.6099159e-05
-2.4268422e-15
7.6099159e-05
-1.8273152e-15
7.6099159e-05
-2.4461869e-15
7.6099159e-05
-3.8742281e-15
7.6099159e-05
-5.6715399e-15
7.6099159e-05
-6.1014091e-15
7.6099159e-05
-5.6867744e-15
7.6099159e-05
-3.4820492e-15
7.6099159e-05
-1.3209613e-15
7.6099159e-05
1.4685489e-15
7.6099159e-05
3.7398445e-15
7.6099159e-05
5.6565055e-15
7.6099159e-05
6.1576384e-15
7.6099159e-05
4.7971838e-15
7.6099159e-05
2.2751537e-15
7.6099159e-05
-2.9262418e-16
7.6099159e-05
-1.7937591e-15
7.6099159e-05
-2.0845458e-15
7.6099159e-05
-2.335231e-15
7.6099159e-05
-3.0794166e-15
7.6099159e-05
-4.5820494e-15
7.6099159e-05
-5.8542552e-15
7.6099159e-05
-6.0643006e-15
7.6099159e-05
-4.4842195e-15
7.6099159e-05
-2.0277667e-15
7.6099159e-05
3.3902401e-16
7.6099159e-05
1.8237992e-15
7.6099159e-05
2.4137665e-15
7.6099159e-05
2.5290691e-15
7.6099159e-05
2.259254e-15
7.6099159e-05
2.2484208e-15
7.6099159e-05
2.14958e-15
7.6099159e-05
2.3383968e-15
7.6099159e-05
1.9751453e-15
7.6099159e-05
1.724917e-15
7.6099159e-05
1.5004745e-15
7.6099159e-05
2.4903572e-15
7.6099159e-05
3.9100846e-15
7.6099159e-05
5.4877122e-15
7.6099159e-05
5.409077e-15
7.6099159e-05
4.239763e-15
7.6099159e-05
1.8133669e-15
7.6099159e-05
2.1988244e-16
7.6099159e-05
-1.4986463e-15
7.6099159e-05
-2.5545416e-15
7.6099159e-05
-4.2692253e-15
7.6099159e-05
-5.3372394e-15
7.6099159e-05
-5.6644121e-15
7.6099159e-05
-4.2471612e-15
7.6099159e-05
-1.8068375e-15
7.6099159e-05
6.7921531e-16
7.6099159e-05
2.3194084e-15
7.6099159e-05
3.2436424e-15
7.6099159e-05
3.2649183e-15
7.6099159e-05
3.1334022e-15
7.6099159e-05
2.7667695e-15
7.6099159e-05
2.7021871e-15
7.6099159e-05
2.6553306e-15
7.6099159e-05
2.8518338e-15
7.6099159e-05
2.8716112e-15
7.6099159e-05
3.0085123e-15
7.6099159e-05
2.8647525e-15
7.6099159e-05
2.80968e-15
7.6099159e-05
2.8038464e-15
7.6099159e-05
3.0956271e-15
7.6099159e-05
2.8757724e-15
7.6099159e-05
1.8652744e-15
7.6099159e-05
1.3668338e-15
7.6099159e-05
3.4806033e-15
7.6099159e-05
6.333011e-15
4.3315104e-15
0.00023312986
0.00043770623
0.00018548526
0.00017459866
0.00015018421
9.6939477e-05
0.0001310242
4.9741073e-05
0.00011965162
2.7695944e-05
0.0001131446
1.5916562e-05
0.00010931814
9.0864461e-06
0.00010710183
5.2975796e-06
0.0001058215
3.0015194e-06
0.00010509347
1.7127655e-06
0.00010468612
9.4305146e-07
0.00010446306
5.1624348e-07
0.00010434425
2.7032444e-07
0.00010428311
1.3820437e-07
0.00010425319
6.5922074e-08
0.00010423959
2.9239777e-08
0.0001042342
1.0755697e-08
0.00010423268
2.4064301e-09
0.00010423281
-1.0803384e-09
0.00010423352
-2.1167109e-09
0.00010423431
-2.1451479e-09
0.000104235
-1.780528e-09
0.00010423553
-1.3490176e-09
0.00010423592
-9.610086e-10
0.00010423618
-6.5793439e-10
0.00010423636
-4.3582707e-10
0.00010423648
-2.8158588e-10
0.00010423655
-1.7780372e-10
0.0001042366
-1.1009979e-10
0.00010423662
-6.6865004e-11
0.00010423664
-3.9872397e-11
0.00010423665
-2.3328364e-11
0.00010423666
-1.3390597e-11
0.00010423666
-7.5247203e-12
0.00010423666
-4.1273702e-12
0.00010423666
-2.1974947e-12
0.00010423666
-1.1265534e-12
0.00010423666
-5.5107855e-13
0.00010423666
-2.5210549e-13
0.00010423666
-1.0028201e-13
0.00010423666
-2.6158129e-14
0.00010423666
6.0871915e-15
0.00010423666
1.5075196e-14
0.00010423666
1.6298197e-14
0.00010423666
1.4727373e-14
0.00010423666
1.340994e-14
0.00010423666
8.4240377e-15
0.00010423666
2.6554264e-15
0.00010423666
-3.5114025e-15
0.00010423666
-6.295482e-15
0.00010423666
-8.1782821e-15
0.00010423666
-8.5031025e-15
0.00010423666
-8.5191227e-15
0.00010423666
-6.5155238e-15
0.00010423666
-4.9749211e-15
0.00010423666
-3.0017724e-15
0.00010423666
-2.0248677e-15
0.00010423666
-1.6478486e-15
0.00010423666
-2.5166613e-15
0.00010423666
-3.2633322e-15
0.00010423666
-3.6053911e-15
0.00010423666
-4.0780179e-15
0.00010423666
-3.2718591e-15
0.00010423666
-3.0506749e-15
0.00010423666
-1.666595e-15
0.00010423666
-1.2194165e-15
0.00010423666
-8.3379212e-16
0.00010423666
-1.6309462e-15
0.00010423666
-2.1451784e-15
0.00010423666
-3.0460724e-15
0.00010423666
-2.8059886e-15
0.00010423666
-3.5155486e-15
0.00010423666
-3.1161456e-15
0.00010423666
-3.6027536e-15
0.00010423666
-2.8037722e-15
0.00010423666
-3.179917e-15
0.00010423666
-3.3286116e-15
0.00010423666
-4.957001e-15
0.00010423666
-5.8783381e-15
0.00010423666
-6.4846714e-15
0.00010423666
-4.6337397e-15
0.00010423666
-2.6988205e-15
0.00010423666
3.5397201e-16
0.00010423666
2.0103026e-15
0.00010423666
3.5904412e-15
0.00010423666
3.9461157e-15
0.00010423666
4.2670755e-15
0.00010423666
4.0109784e-15
0.00010423666
3.9940116e-15
0.00010423666
3.8095699e-15
0.00010423666
3.863049e-15
0.00010423666
3.8033162e-15
0.00010423666
3.7329138e-15
0.00010423666
3.6211246e-15
0.00010423666
3.6001797e-15
0.00010423666
3.7195223e-15
0.00010423666
3.4832489e-15
0.00010423666
2.9390448e-15
0.00010423666
2.3085116e-15
0.00010423666
2.778703e-15
0.00010423666
4.0919775e-15
0.00010423666
5.712742e-15
0.00010423666
6.5718259e-15
0.00010423666
6.1854326e-15
0.00010423666
4.048166e-15
0.00010423666
1.0849423e-15
0.00010423666
-2.0421538e-15
0.00010423666
-4.0490652e-15
0.00010423666
-4.099653e-15
0.00010423666
-2.5729068e-15
0.00010423666
-1.8338754e-16
0.00010423666
2.695453e-15
0.00010423666
3.5860706e-15
0.00010423666
3.8673028e-15
0.00010423666
3.9449777e-15
0.00010423666
4.0703581e-15
0.00010423666
5.1805416e-15
0.00010423666
5.7185552e-15
0.00010423666
5.1674663e-15
0.00010423666
3.5585667e-15
0.00010423666
8.9745564e-16
0.00010423666
-1.3428046e-15
0.00010423666
-3.2678369e-15
0.00010423666
-4.1753085e-15
0.00010423666
-4.4886266e-15
0.00010423666
-4.3153333e-15
0.00010423666
-4.0882547e-15