/*--------------------------------*- C++ -*----------------------------------*\
| =========                 |                                                 |
| \\      /  F ield         | OpenFOAM: The Open Source CFD Toolbox           |
|  \\    /   O peration     | Version:  2206                                  |
|   \\  /    A nd           | Website:  www.openfoam.com                      |
|    \\/     M anipulation  |                                                 |
\*---------------------------------------------------------------------------*/
FoamFile
{
    version     2.0;
    format      ascii;
    arch        "LSB;label=32;scalar=64";
    class       volVectorField;
    location    "26";
    object      U;
}
// * * * * * * * * * * * * * * * * * * * * * * * * * * * * * * * * * * * * * //

dimensions      [0 1 -1 0 0 0 0];

internalField   nonuniform List<vector> 
15000
(
(0.15962853 0.053997679 0)
(0.11557193 0.0064916394 0)
(0.064251363 0.0014144144 0)
(0.055918599 0.00074959127 0)
(0.047595817 0.00028825822 0)
(0.044708799 0.00019883354 0)
(0.042412494 9.0514468e-05 0)
(0.041406636 6.0123718e-05 0)
(0.040707474 2.8979108e-05 0)
(0.040376989 1.8022463e-05 0)
(0.040167796 8.666362e-06 0)
(0.040068659 4.9997999e-06 0)
(0.040011054 2.2706282e-06 0)
(0.039985308 1.1756723e-06 0)
(0.039971973 4.4768153e-07 0)
(0.039967049 1.7437154e-07 0)
(0.03996518 1.4284458e-08 0)
(0.039965128 -3.0172297e-08 0)
(0.039965544 -4.8751624e-08 0)
(0.039966152 -4.3380147e-08 0)
(0.03996668 -3.5903795e-08 0)
(0.039967111 -2.6175666e-08 0)
(0.039967422 -1.863124e-08 0)
(0.039967642 -1.2493848e-08 0)
(0.03996779 -8.2398406e-09 0)
(0.039967887 -5.2416523e-09 0)
(0.039967949 -3.291575e-09 0)
(0.039967988 -2.0146695e-09 0)
(0.039968012 -1.2160522e-09 0)
(0.039968026 -7.1617951e-10 0)
(0.039968035 -4.1467241e-10 0)
(0.03996804 -2.3482891e-10 0)
(0.039968042 -1.310419e-10 0)
(0.039968044 -7.1397996e-11 0)
(0.039968045 -3.7764769e-11 0)
(0.039968045 -1.9185951e-11 0)
(0.039968045 -9.4808001e-12 0)
(0.039968046 -4.7751888e-12 0)
(0.039968046 -2.5706823e-12 0)
(0.039968046 -1.145757e-12 0)
(0.039968046 -1.5491626e-13 0)
(0.039968046 3.8856011e-13 0)
(0.039968046 2.5110999e-13 0)
(0.039968046 2.0846938e-13 0)
(0.039968046 3.2874586e-13 0)
(0.039968046 7.9083298e-13 0)
(0.039968046 7.5645789e-13 0)
(0.039968046 4.318931e-13 0)
(0.039968046 -2.5405946e-13 0)
(0.039968046 -5.811354e-13 0)
(0.039968046 -8.9333703e-13 0)
(0.039968046 -8.7691472e-13 0)
(0.039968046 -8.3075683e-13 0)
(0.039968046 -4.5641705e-13 0)
(0.039968046 -2.3268043e-13 0)
(0.039968046 2.1842889e-14 0)
(0.039968046 1.1440075e-13 0)
(0.039968046 2.5751098e-13 0)
(0.039968046 1.0810053e-13 0)
(0.039968046 1.193396e-13 0)
(0.039968046 1.7501745e-14 0)
(0.039968046 6.2376066e-15 0)
(0.039968046 3.6514473e-14 0)
(0.039968046 8.7781827e-14 0)
(0.039968046 2.1152328e-13 0)
(0.039968046 2.5383121e-13 0)
(0.039968046 2.4777093e-13 0)
(0.039968046 1.0801168e-13 0)
(0.039968046 -5.9374092e-15 0)
(0.039968046 -8.530195e-14 0)
(0.039968046 -1.1206184e-13 0)
(0.039968046 -1.3554808e-13 0)
(0.039968046 -1.4822472e-13 0)
(0.039968046 -1.5885131e-13 0)
(0.039968046 -1.0273073e-13 0)
(0.039968046 -5.7314222e-14 0)
(0.039968046 -7.8327199e-14 0)
(0.039968046 -2.4157492e-13 0)
(0.039968046 -4.9365675e-13 0)
(0.039968046 -6.9487548e-13 0)
(0.039968046 -7.171328e-13 0)
(0.039968046 -5.3694381e-13 0)
(0.039968046 -2.6637134e-13 0)
(0.039968046 -1.2800374e-14 0)
(0.039968046 7.7455815e-14 0)
(0.039968046 1.6115993e-13 0)
(0.039968046 1.0576219e-13 0)
(0.039968046 1.410827e-13 0)
(0.039968046 6.8035723e-14 0)
(0.039968046 1.2851603e-13 0)
(0.039968046 6.8786481e-14 0)
(0.039968046 1.4530831e-13 0)
(0.039968046 6.600064e-14 0)
(0.039968046 1.3436997e-13 0)
(0.039968046 5.1857145e-14 0)
(0.039968046 1.666659e-13 0)
(0.039968046 7.9339279e-14 0)
(0.039968046 1.1450617e-13 0)
(0.039968046 -1.0044101e-13 0)
(0.039968046 -1.065198e-14 0)
(0.039968046 8.3563222e-15 0)
(0.039968046 3.652924e-13 0)
(0.039968046 5.1535833e-13 0)
(0.039968046 7.6332165e-13 0)
(0.039968046 5.3041396e-13 0)
(0.039968046 2.5797806e-13 0)
(0.039968046 -2.3097428e-13 0)
(0.039968046 -3.9949988e-13 0)
(0.039968046 -5.0609913e-13 0)
(0.039968046 -3.5823275e-13 0)
(0.039968046 -2.0458922e-13 0)
(0.039968046 9.8498004e-14 0)
(0.039968046 1.5065205e-13 0)
(0.039968046 2.2237313e-13 0)
(0.039968046 3.4479316e-14 0)
(0.039968046 1.6200021e-13 0)
(0.039968046 2.3399348e-13 0)
(0.039968046 5.4817418e-13 0)
(0.039968046 5.871143e-13 0)
(0.039968046 5.9399063e-13 0)
(0.039968046 2.6440201e-13 0)
(0.039968046 2.4531677e-14 0)
(0.039968046 -2.1051801e-13 0)
(0.039968046 -2.3189233e-13 0)
(0.039968046 -2.4582935e-13 0)
(0.039968046 -1.7585552e-13 0)
(0.039968046 -1.6659281e-13 0)
(0.039968046 -1.337626e-13 0)
(0.039968046 -1.5152141e-13 0)
(0.039968046 -1.448852e-13 0)
(0.039968046 -1.6344399e-13 0)
(0.039968046 -1.5981138e-13 0)
(0.039968046 -1.694739e-13 0)
(0.039968046 -1.6766948e-13 0)
(0.039968046 -1.7357611e-13 0)
(0.039968046 -1.7537436e-13 0)
(0.039968046 -1.7868631e-13 0)
(0.039968046 -1.8259356e-13 0)
(0.039968046 -1.84677e-13 0)
(0.039968046 -1.9085952e-13 0)
(0.039968046 -1.9038361e-13 0)
(0.039968046 -1.946951e-13 0)
(0.039968046 -1.9540558e-13 0)
(0.039968046 -2.0432991e-13 0)
(0.039968046 -1.9595365e-13 0)
(0.039968046 -1.8674543e-13 0)
(0.039968046 -1.6966534e-13 0)
(0.039968046 -1.8439125e-13 0)
(0.039968046 -1.8704962e-13 0)
(0.039968046 -1.7634312e-13 0)
(0.039968046 -1.0351177e-13 0)
(0.039968046 -6.7822684e-14 0)
(0.039968046 -1.4044729e-13 0)
(0.039968046 -3.4345743e-13 0)
(0.039968046 -5.6928513e-13 0)
(0.039968046 -7.1152608e-13 0)
(0.039968046 -5.9653235e-13 0)
(0.039968046 -3.5666254e-13 0)
(0.039968046 -5.0209953e-14 0)
(0.039968046 1.2739264e-13 0)
(0.039968046 2.1208045e-13 0)
(0.039968046 2.1230667e-13 0)
(0.039968046 1.9795927e-13 0)
(0.039968046 1.7056056e-13 0)
(0.039968046 1.8031721e-13 0)
(0.039968046 1.8462407e-13 0)
(0.039968046 1.9661879e-13 0)
(0.039968046 2.0198328e-13 0)
(0.039968046 2.0741747e-13 0)
(0.039968046 2.0646808e-13 0)
(0.039968046 2.0750937e-13 0)
(0.039968046 2.0459276e-13 0)
(0.039968046 2.0600412e-13 0)
(0.039968046 2.0386767e-13 0)
(0.039968046 2.0911851e-13 0)
(0.039968046 2.0518025e-13 0)
(0.039968046 2.1595467e-13 0)
(0.039968046 2.0837829e-13 0)
(0.039968046 2.1906547e-13 0)
(0.039968046 2.1207431e-13 0)
(0.039968046 2.2162561e-13 0)
(0.039968046 2.1857588e-13 0)
(0.039968046 2.2198857e-13 0)
(0.039968046 2.1456285e-13 0)
(0.039968046 2.2792015e-13 0)
(0.039968046 2.3230768e-13 0)
(0.039968046 2.4826004e-13 0)
(0.039968046 2.3919246e-13 0)
(0.039968046 2.3887267e-13 0)
(0.039968046 2.20444e-13 0)
(0.039968046 2.3464073e-13 0)
(0.039968046 2.4117014e-13 0)
(0.039968046 2.6783295e-13 0)
(0.039968046 2.2723443e-13 0)
(0.039968046 1.8253892e-13 0)
(0.039968046 1.3834771e-13 0)
(0.039968046 2.5267138e-13 0)
(0.039968046 4.3329047e-13 0)
(0.039968046 6.5806104e-13 0)
(0.039968046 7.3689723e-13 0)
(0.039968046 6.0463732e-13 0)
(0.039968046 2.8087859e-13 0)
(0.039968046 -1.6503769e-14 0)
(0.039968046 -1.9065176e-13 0)
(0.039968046 -1.7565556e-13 0)
(0.039968046 -1.5370502e-13 0)
(0.039968046 -1.8756747e-13 0)
(0.039968046 -3.7798985e-13 0)
(0.039968046 -5.8753528e-13 0)
(0.039968046 -7.2154798e-13 0)
(0.039968046 -6.2187234e-13 0)
(0.039968046 -3.7812552e-13 0)
(0.039968046 -7.101001e-14 0)
(0.039968046 1.0191581e-13 0)
(0.039968046 2.2198633e-13 0)
(0.039968046 2.2529516e-13 0)
(0.039968046 2.0477902e-13 0)
(0.039968046 1.1535792e-13 0)
(0.039968046 9.2899362e-14 0)
(0.039968046 1.6312263e-13 0)
(0.039968046 3.8706165e-13 0)
(0.039968046 6.0789697e-13 0)
(0.039968046 7.5074294e-13 0)
(0.039968046 6.6000411e-13 0)
(0.039968046 3.9328061e-13 0)
(0.039968046 8.5002141e-14 0)
(0.039968046 -1.2950429e-13 0)
(0.039968046 -2.4858132e-13 0)
(0.039968046 -2.26428e-13 0)
(0.039968046 -1.6731619e-13 0)
(0.039968046 -7.2662339e-14 0)
(0.039968046 -1.3582099e-13 0)
(0.039968046 -3.1539714e-13 0)
(0.039968046 -5.8840044e-13 0)
(0.039968046 -7.1265037e-13 0)
(0.039968046 -7.3156295e-13 0)
(0.039968046 -5.1063261e-13 0)
(0.039968046 -2.7045594e-13 0)
(0.039968046 4.1934883e-14 0)
(0.039968046 3.1719133e-13 0)
(0.039968046 5.7525878e-13 0)
(0.039968046 7.0655001e-13 0)
(0.039968046 6.064171e-13 0)
(0.039968046 3.3298536e-13 0)
(0.039968046 2.915501e-14 0)
(0.039968046 -1.4406506e-13 0)
(0.039968046 -1.5070285e-13 0)
(0.039968046 -1.4875781e-13 0)
(0.039968046 -2.2294687e-13 0)
(0.039968046 -4.3016644e-13 0)
(0.039968046 -6.4528442e-13 0)
(0.039968046 -7.5667857e-13 0)
(0.039968046 -6.3128464e-13 0)
(0.039968046 -3.5576614e-13 0)
(0.039968046 -7.8182065e-14 0)
(0.039968046 9.2069906e-14 0)
(0.039968046 1.511129e-13 0)
(0.039968046 1.536318e-13 0)
(0.039968046 1.1867596e-13 0)
(0.039968046 1.1826483e-13 0)
(0.039968046 1.1485216e-13 0)
(0.039968046 1.4777593e-13 0)
(0.039968046 1.0998997e-13 0)
(0.039968046 7.0486537e-14 0)
(0.039968046 2.1904728e-14 0)
(0.039968046 1.258741e-13 0)
(0.039968046 3.1613729e-13 0)
(0.039968046 5.6134868e-13 0)
(0.039968046 6.2899114e-13 0)
(0.039968046 5.5058904e-13 0)
(0.039968046 2.8644237e-13 0)
(0.039968046 1.1758657e-13 0)
(0.039968046 -5.7708452e-14 0)
(0.039968046 -1.4754667e-13 0)
(0.039968046 -3.4941865e-13 0)
(0.039968046 -5.2040888e-13 0)
(0.039968046 -6.3407732e-13 0)
(0.039968046 -5.3232242e-13 0)
(0.039968046 -2.7495222e-13 0)
(0.039968046 1.6783533e-14 0)
(0.039968046 1.9816086e-13 0)
(0.039968046 2.9516275e-13 0)
(0.039968046 2.8204028e-13 0)
(0.039968046 2.5967337e-13 0)
(0.039968046 2.1024303e-13 0)
(0.039968046 2.0210933e-13 0)
(0.039968046 1.9572041e-13 0)
(0.039968046 2.2370764e-13 0)
(0.039968046 2.2506708e-13 0)
(0.039968046 2.4504224e-13 0)
(0.039968046 2.2517891e-13 0)
(0.039968046 2.1765653e-13 0)
(0.039968046 2.1204642e-13 0)
(0.039968046 2.5524913e-13 0)
(0.039968046 2.3840866e-13 0)
(0.039968046 1.0791205e-13 0)
(0.039968046 6.2103669e-15 0)
(0.039968046 2.5563057e-13 0)
(0.039968046 6.758777e-13 0)
(0.039968046 5.2432612e-13 0)
(0.36732384 0.1406283 0)
(0.29754389 0.025079379 0)
(0.1860793 0.0083694463 0)
(0.16132807 0.0041218502 0)
(0.13901859 0.0019375516 0)
(0.13040448 0.0011769954 0)
(0.12396461 0.00061110511 0)
(0.12095998 0.00037190429 0)
(0.1189454 0.00019726209 0)
(0.11794826 0.00011564666 0)
(0.11733081 6.0270865e-05 0)
(0.11702581 3.3427165e-05 0)
(0.11685066 1.6520798e-05 0)
(0.11676842 8.398599e-06 0)
(0.1167257 3.6663865e-06 0)
(0.11670834 1.5222069e-06 0)
(0.1167012 3.9983357e-07 0)
(0.11669986 -2.8163439e-08 0)
(0.1167004 -1.9935941e-07 0)
(0.11670175 -2.1632451e-07 0)
(0.11670304 -1.9078711e-07 0)
(0.11670415 -1.4642325e-07 0)
(0.11670497 -1.0665362e-07 0)
(0.11670557 -7.3431508e-08 0)
(0.11670597 -4.917723e-08 0)
(0.11670624 -3.1873617e-08 0)
(0.11670642 -2.0267553e-08 0)
(0.11670653 -1.258968e-08 0)
(0.11670659 -7.6889274e-09 0)
(0.11670664 -4.5973407e-09 0)
(0.11670666 -2.7005896e-09 0)
(0.11670667 -1.5549614e-09 0)
(0.11670668 -8.7980729e-10 0)
(0.11670669 -4.866505e-10 0)
(0.11670669 -2.6198e-10 0)
(0.11670669 -1.3630109e-10 0)
(0.11670669 -6.8376306e-11 0)
(0.11670669 -3.3464015e-11 0)
(0.11670669 -1.5976379e-11 0)
(0.11670669 -6.4633644e-12 0)
(0.11670669 -1.0813066e-12 0)
(0.11670669 1.4378014e-12 0)
(0.11670669 1.4451723e-12 0)
(0.11670669 1.248339e-12 0)
(0.11670669 1.5085184e-12 0)
(0.11670669 2.6393074e-12 0)
(0.11670669 2.4732665e-12 0)
(0.11670669 1.3516066e-12 0)
(0.11670669 -6.1048163e-13 0)
(0.11670669 -1.731431e-12 0)
(0.11670669 -2.5463222e-12 0)
(0.11670669 -2.6302123e-12 0)
(0.11670669 -2.3876986e-12 0)
(0.11670669 -1.3684592e-12 0)
(0.11670669 -6.4492948e-13 0)
(0.11670669 1.727812e-14 0)
(0.11670669 3.1159288e-13 0)
(0.11670669 5.7235483e-13 0)
(0.11670669 3.0566883e-13 0)
(0.11670669 1.8400726e-13 0)
(0.11670669 2.6893498e-14 0)
(0.11670669 -1.0437595e-13 0)
(0.11670669 8.2285012e-14 0)
(0.11670669 1.8168367e-13 0)
(0.11670669 6.2281608e-13 0)
(0.11670669 7.5219377e-13 0)
(0.11670669 7.6942117e-13 0)
(0.11670669 3.6774656e-13 0)
(0.11670669 5.3992045e-14 0)
(0.11670669 -2.7019738e-13 0)
(0.11670669 -2.6953147e-13 0)
(0.11670669 -4.5643037e-13 0)
(0.11670669 -3.9535631e-13 0)
(0.11670669 -5.1395454e-13 0)
(0.11670669 -2.6302469e-13 0)
(0.11670669 -2.1396616e-13 0)
(0.11670669 -1.7617627e-13 0)
(0.11670669 -7.2264502e-13 0)
(0.11670669 -1.3729623e-12 0)
(0.11670669 -2.0443491e-12 0)
(0.11670669 -2.0168972e-12 0)
(0.11670669 -1.5929499e-12 0)
(0.11670669 -6.8350598e-13 0)
(0.11670669 -6.5704652e-14 0)
(0.11670669 3.3705682e-13 0)
(0.11670669 4.4749641e-13 0)
(0.11670669 4.2684039e-13 0)
(0.11670669 3.8540982e-13 0)
(0.11670669 3.192093e-13 0)
(0.11670669 3.4550645e-13 0)
(0.11670669 3.233193e-13 0)
(0.11670669 3.9094207e-13 0)
(0.11670669 3.203046e-13 0)
(0.11670669 3.5301135e-13 0)
(0.11670669 2.8080915e-13 0)
(0.11670669 4.3113037e-13 0)
(0.11670669 3.6836565e-13 0)
(0.11670669 2.861236e-13 0)
(0.11670669 -1.2682869e-13 0)
(0.11670669 -1.1572864e-13 0)
(0.11670669 1.4159426e-13 0)
(0.11670669 9.4298498e-13 0)
(0.11670669 1.6169861e-12 0)
(0.11670669 2.1473386e-12 0)
(0.11670669 1.6854254e-12 0)
(0.11670669 6.9723231e-13 0)
(0.11670669 -5.4488398e-13 0)
(0.11670669 -1.1798136e-12 0)
(0.11670669 -1.300324e-12 0)
(0.11670669 -9.4620663e-13 0)
(0.11670669 -4.2661838e-13 0)
(0.11670669 3.7526539e-13 0)
(0.11670669 5.6852687e-13 0)
(0.11670669 5.5873009e-13 0)
(0.11670669 2.5961992e-13 0)
(0.11670669 3.3154613e-13 0)
(0.11670669 7.7847029e-13 0)
(0.11670669 1.4940533e-12 0)
(0.11670669 1.7873485e-12 0)
(0.11670669 1.6792568e-12 0)
(0.11670669 8.2125288e-13 0)
(0.11670669 2.1531936e-14 0)
(0.11670669 -5.9553847e-13 0)
(0.11670669 -7.3217082e-13 0)
(0.11670669 -7.1406414e-13 0)
(0.11670669 -5.6326978e-13 0)
(0.11670669 -4.8841867e-13 0)
(0.11670669 -4.3417728e-13 0)
(0.11670669 -4.4806545e-13 0)
(0.11670669 -4.6167456e-13 0)
(0.11670669 -4.8650164e-13 0)
(0.11670669 -5.0095644e-13 0)
(0.11670669 -5.069389e-13 0)
(0.11670669 -5.1977657e-13 0)
(0.11670669 -5.2195037e-13 0)
(0.11670669 -5.3982783e-13 0)
(0.11670669 -5.3889007e-13 0)
(0.11670669 -5.5803651e-13 0)
(0.11670669 -5.5818623e-13 0)
(0.11670669 -5.7994322e-13 0)
(0.11670669 -5.7593977e-13 0)
(0.11670669 -5.9027901e-13 0)
(0.11670669 -5.9089073e-13 0)
(0.11670669 -6.1610375e-13 0)
(0.11670669 -5.9440828e-13 0)
(0.11670669 -5.6553193e-13 0)
(0.11670669 -5.1901973e-13 0)
(0.11670669 -5.5397997e-13 0)
(0.11670669 -5.7080137e-13 0)
(0.11670669 -5.2894448e-13 0)
(0.11670669 -3.241611e-13 0)
(0.11670669 -2.1202622e-13 0)
(0.11670669 -4.2393834e-13 0)
(0.11670669 -9.9264228e-13 0)
(0.11670669 -1.6753471e-12 0)
(0.11670669 -2.071175e-12 0)
(0.11670669 -1.749672e-12 0)
(0.11670669 -1.0469184e-12 0)
(0.11670669 -1.4301054e-13 0)
(0.11670669 3.802592e-13 0)
(0.11670669 6.2805934e-13 0)
(0.11670669 6.3718707e-13 0)
(0.11670669 5.916976e-13 0)
(0.11670669 5.1744421e-13 0)
(0.11670669 5.4424767e-13 0)
(0.11670669 5.5036317e-13 0)
(0.11670669 5.8579803e-13 0)
(0.11670669 6.0037926e-13 0)
(0.11670669 6.1678551e-13 0)
(0.11670669 6.1256229e-13 0)
(0.11670669 6.1690097e-13 0)
(0.11670669 6.0626596e-13 0)
(0.11670669 6.1145624e-13 0)
(0.11670669 6.0393511e-13 0)
(0.11670669 6.1910676e-13 0)
(0.11670669 6.0772358e-13 0)
(0.11670669 6.3564459e-13 0)
(0.11670669 6.1651901e-13 0)
(0.11670669 6.4200014e-13 0)
(0.11670669 6.2573957e-13 0)
(0.11670669 6.4982176e-13 0)
(0.11670669 6.4250854e-13 0)
(0.11670669 6.5231344e-13 0)
(0.11670669 6.2933716e-13 0)
(0.11670669 6.704712e-13 0)
(0.11670669 6.7873219e-13 0)
(0.11670669 7.2793066e-13 0)
(0.11670669 6.9747868e-13 0)
(0.11670669 6.9782292e-13 0)
(0.11670669 6.4138199e-13 0)
(0.11670669 6.8142757e-13 0)
(0.11670669 6.9984167e-13 0)
(0.11670669 7.7677303e-13 0)
(0.11670669 6.6614895e-13 0)
(0.11670669 5.290512e-13 0)
(0.11670669 4.018744e-13 0)
(0.11670669 7.2631007e-13 0)
(0.11670669 1.2459926e-12 0)
(0.11670669 1.9049869e-12 0)
(0.11670669 2.1409165e-12 0)
(0.11670669 1.7582834e-12 0)
(0.11670669 8.3009037e-13 0)
(0.11670669 -5.5856293e-14 0)
(0.11670669 -5.6027937e-13 0)
(0.11670669 -5.2117756e-13 0)
(0.11670669 -4.4818207e-13 0)
(0.11670669 -5.3364035e-13 0)
(0.11670669 -1.081899e-12 0)
(0.11670669 -1.6870484e-12 0)
(0.11670669 -2.0819955e-12 0)
(0.11670669 -1.7972301e-12 0)
(0.11670669 -1.0825519e-12 0)
(0.11670669 -1.9358554e-13 0)
(0.11670669 3.235866e-13 0)
(0.11670669 6.5317397e-13 0)
(0.11670669 6.8169705e-13 0)
(0.11670669 6.0520039e-13 0)
(0.11670669 3.54536e-13 0)
(0.11670669 2.6828765e-13 0)
(0.11670669 4.7500118e-13 0)
(0.11670669 1.1080448e-12 0)
(0.11670669 1.7568538e-12 0)
(0.11670669 2.1750242e-12 0)
(0.11670669 1.913936e-12 0)
(0.11670669 1.138027e-12 0)
(0.11670669 2.4374116e-13 0)
(0.11670669 -3.8557855e-13 0)
(0.11670669 -7.2642791e-13 0)
(0.11670669 -6.7249025e-13 0)
(0.11670669 -4.9130969e-13 0)
(0.11670669 -2.1805663e-13 0)
(0.11670669 -3.7684704e-13 0)
(0.11670669 -9.2004954e-13 0)
(0.11670669 -1.6788339e-12 0)
(0.11670669 -2.0740838e-12 0)
(0.11670669 -2.1051565e-12 0)
(0.11670669 -1.4714426e-12 0)
(0.11670669 -7.7192966e-13 0)
(0.11670669 1.4155414e-13 0)
(0.11670669 9.2382874e-13 0)
(0.11670669 1.698006e-12 0)
(0.11670669 2.0606617e-12 0)
(0.11670669 1.7852899e-12 0)
(0.11670669 9.9020027e-13 0)
(0.11670669 9.0928275e-14 0)
(0.11670669 -4.1033306e-13 0)
(0.11670669 -4.3671729e-13 0)
(0.11670669 -4.1743753e-13 0)
(0.11670669 -6.2439063e-13 0)
(0.11670669 -1.2089392e-12 0)
(0.11670669 -1.8433303e-12 0)
(0.11670669 -2.161266e-12 0)
(0.11670669 -1.7969224e-12 0)
(0.11670669 -1.0021438e-12 0)
(0.11670669 -1.839692e-13 0)
(0.11670669 3.1290153e-13 0)
(0.11670669 4.7884396e-13 0)
(0.11670669 4.8925906e-13 0)
(0.11670669 3.7888374e-13 0)
(0.11670669 3.7612491e-13 0)
(0.11670669 3.6165331e-13 0)
(0.11670669 4.5854933e-13 0)
(0.11670669 3.5712197e-13 0)
(0.11670669 2.4282192e-13 0)
(0.11670669 9.8022312e-14 0)
(0.11670669 3.9814518e-13 0)
(0.11670669 9.4289153e-13 0)
(0.11670669 1.6598054e-12 0)
(0.11670669 1.8602241e-12 0)
(0.11670669 1.6186523e-12 0)
(0.11670669 8.5313989e-13 0)
(0.11670669 3.3140793e-13 0)
(0.11670669 -1.5997766e-13 0)
(0.11670669 -4.4250019e-13 0)
(0.11670669 -1.0291539e-12 0)
(0.11670669 -1.5337863e-12 0)
(0.11670669 -1.882586e-12 0)
(0.11670669 -1.5863124e-12 0)
(0.11670669 -8.2767848e-13 0)
(0.11670669 1.7504835e-14 0)
(0.11670669 5.6985456e-13 0)
(0.11670669 8.4541276e-13 0)
(0.11670669 8.2139501e-13 0)
(0.11670669 7.4783387e-13 0)
(0.11670669 6.1248694e-13 0)
(0.11670669 5.8878009e-13 0)
(0.11670669 5.7971439e-13 0)
(0.11670669 6.4925444e-13 0)
(0.11670669 6.6709417e-13 0)
(0.11670669 7.1405148e-13 0)
(0.11670669 6.6991881e-13 0)
(0.11670669 6.3766687e-13 0)
(0.11670669 6.2819637e-13 0)
(0.11670669 7.432762e-13 0)
(0.11670669 7.1484859e-13 0)
(0.11670669 3.3937521e-13 0)
(0.11670669 2.2290697e-14 0)
(0.11670669 7.0179319e-13 0)
(0.11670669 1.9712028e-12 0)
(0.11670669 1.5866072e-12 0)
(0.50390834 0.19019022 0)
(0.4384704 0.050431497 0)
(0.29767008 0.022055291 0)
(0.25944374 0.010780065 0)
(0.22598939 0.0055621017 0)
(0.21213187 0.0032307621 0)
(0.20205719 0.0017732588 0)
(0.19716897 0.0010457168 0)
(0.19394744 0.00057678597 0)
(0.19230772 0.00033133651 0)
(0.19130242 0.00017833935 0)
(0.19079327 9.7738644e-05 0)
(0.19050201 4.9932971e-05 0)
(0.1903612 2.5333076e-05 0)
(0.19028762 1.1623482e-05 0)
(0.19025609 4.9703363e-06 0)
(0.1902425 1.596782e-06 0)
(0.19023894 1.7336196e-07 0)
(0.19023899 -4.0017584e-07 0)
(0.19024063 -5.2298677e-07 0)
(0.19024241 -4.8548971e-07 0)
(0.19024402 -3.8532234e-07 0)
(0.19024524 -2.8518518e-07 0)
(0.19024615 -1.9942544e-07 0)
(0.19024677 -1.3484001e-07 0)
(0.19024719 -8.8300562e-08 0)
(0.19024746 -5.6554211e-08 0)
(0.19024763 -3.540642e-08 0)
(0.19024774 -2.1762993e-08 0)
(0.1902478 -1.3112491e-08 0)
(0.19024784 -7.7594364e-09 0)
(0.19024787 -4.5035006e-09 0)
(0.19024788 -2.5654978e-09 0)
(0.19024789 -1.4295995e-09 0)
(0.19024789 -7.7639459e-10 0)
(0.19024789 -4.0836513e-10 0)
(0.1902479 -2.0673031e-10 0)
(0.1902479 -1.0041679e-10 0)
(0.1902479 -4.6087002e-11 0)
(0.1902479 -1.8005861e-11 0)
(0.1902479 -3.6351492e-12 0)
(0.1902479 2.7037412e-12 0)
(0.1902479 3.6537804e-12 0)
(0.1902479 3.4546297e-12 0)
(0.1902479 3.4821362e-12 0)
(0.1902479 4.4946856e-12 0)
(0.1902479 3.7604672e-12 0)
(0.1902479 1.8599836e-12 0)
(0.1902479 -9.857007e-13 0)
(0.1902479 -2.5817168e-12 0)
(0.1902479 -3.6931785e-12 0)
(0.1902479 -3.8623123e-12 0)
(0.1902479 -3.5851572e-12 0)
(0.1902479 -2.2553722e-12 0)
(0.1902479 -1.2775311e-12 0)
(0.1902479 -3.5475322e-13 0)
(0.1902479 8.4039315e-14 0)
(0.1902479 4.0592603e-13 0)
(0.1902479 3.5833076e-14 0)
(0.1902479 -1.7728079e-13 0)
(0.1902479 -3.8023755e-13 0)
(0.1902479 -5.715563e-13 0)
(0.1902479 -2.8643547e-13 0)
(0.1902479 -1.4411443e-13 0)
(0.1902479 4.8198981e-13 0)
(0.1902479 6.9243462e-13 0)
(0.1902479 7.5569007e-13 0)
(0.1902479 2.5302834e-13 0)
(0.1902479 -1.4124437e-13 0)
(0.1902479 -5.9516056e-13 0)
(0.1902479 -5.871546e-13 0)
(0.1902479 -8.7328115e-13 0)
(0.1902479 -7.6751967e-13 0)
(0.1902479 -9.4586894e-13 0)
(0.1902479 -5.8499834e-13 0)
(0.1902479 -5.6250268e-13 0)
(0.1902479 -5.3169033e-13 0)
(0.1902479 -1.3036592e-12 0)
(0.1902479 -2.1273153e-12 0)
(0.1902479 -2.9481814e-12 0)
(0.1902479 -2.7351667e-12 0)
(0.1902479 -2.0561998e-12 0)
(0.1902479 -7.2617069e-13 0)
(0.1902479 1.4390449e-13 0)
(0.1902479 7.6241161e-13 0)
(0.1902479 9.2158071e-13 0)
(0.1902479 9.3598863e-13 0)
(0.1902479 8.5904545e-13 0)
(0.1902479 7.8834679e-13 0)
(0.1902479 7.9232051e-13 0)
(0.1902479 7.7941331e-13 0)
(0.1902479 8.4189681e-13 0)
(0.1902479 7.6455143e-13 0)
(0.1902479 7.8018195e-13 0)
(0.1902479 7.0718505e-13 0)
(0.1902479 8.7413874e-13 0)
(0.1902479 7.9747647e-13 0)
(0.1902479 6.3891483e-13 0)
(0.1902479 1.3057757e-13 0)
(0.1902479 1.6422045e-13 0)
(0.1902479 5.9708149e-13 0)
(0.1902479 1.6379713e-12 0)
(0.1902479 2.5098671e-12 0)
(0.1902479 3.0552228e-12 0)
(0.1902479 2.3406882e-12 0)
(0.1902479 9.0560459e-13 0)
(0.1902479 -8.0364086e-13 0)
(0.1902479 -1.7442583e-12 0)
(0.1902479 -1.8720319e-12 0)
(0.1902479 -1.3369888e-12 0)
(0.1902479 -5.0193521e-13 0)
(0.1902479 6.8217529e-13 0)
(0.1902479 1.0126526e-12 0)
(0.1902479 1.0105606e-12 0)
(0.1902479 7.0468302e-13 0)
(0.1902479 7.6631692e-13 0)
(0.1902479 1.4027341e-12 0)
(0.1902479 2.2414125e-12 0)
(0.1902479 2.5412871e-12 0)
(0.1902479 2.2451204e-12 0)
(0.1902479 1.0178173e-12 0)
(0.1902479 -1.2476503e-13 0)
(0.1902479 -1.0087672e-12 0)
(0.1902479 -1.2668813e-12 0)
(0.1902479 -1.270727e-12 0)
(0.1902479 -1.090204e-12 0)
(0.1902479 -9.7502067e-13 0)
(0.1902479 -9.0121663e-13 0)
(0.1902479 -9.0401341e-13 0)
(0.1902479 -9.2478411e-13 0)
(0.1902479 -9.4983591e-13 0)
(0.1902479 -9.7551296e-13 0)
(0.1902479 -9.7872271e-13 0)
(0.1902479 -1.0014135e-12 0)
(0.1902479 -1.000734e-12 0)
(0.1902479 -1.0285466e-12 0)
(0.1902479 -1.0248441e-12 0)
(0.1902479 -1.0554354e-12 0)
(0.1902479 -1.0546802e-12 0)
(0.1902479 -1.0880572e-12 0)
(0.1902479 -1.0830962e-12 0)
(0.1902479 -1.106208e-12 0)
(0.1902479 -1.1080912e-12 0)
(0.1902479 -1.1411554e-12 0)
(0.1902479 -1.1081408e-12 0)
(0.1902479 -1.0675188e-12 0)
(0.1902479 -1.0078216e-12 0)
(0.1902479 -1.0571366e-12 0)
(0.1902479 -1.0740238e-12 0)
(0.1902479 -1.001911e-12 0)
(0.1902479 -7.2445069e-13 0)
(0.1902479 -6.0122913e-13 0)
(0.1902479 -9.3165816e-13 0)
(0.1902479 -1.6983333e-12 0)
(0.1902479 -2.5576759e-12 0)
(0.1902479 -2.9531391e-12 0)
(0.1902479 -2.3653477e-12 0)
(0.1902479 -1.3246931e-12 0)
(0.1902479 -4.2000977e-14 0)
(0.1902479 7.1222465e-13 0)
(0.1902479 1.0989402e-12 0)
(0.1902479 1.1523206e-12 0)
(0.1902479 1.1139061e-12 0)
(0.1902479 1.0148758e-12 0)
(0.1902479 1.0470937e-12 0)
(0.1902479 1.0425314e-12 0)
(0.1902479 1.0864133e-12 0)
(0.1902479 1.1024711e-12 0)
(0.1902479 1.1272564e-12 0)
(0.1902479 1.1211607e-12 0)
(0.1902479 1.1310791e-12 0)
(0.1902479 1.1168397e-12 0)
(0.1902479 1.1266288e-12 0)
(0.1902479 1.1147655e-12 0)
(0.1902479 1.1380466e-12 0)
(0.1902479 1.120231e-12 0)
(0.1902479 1.1598727e-12 0)
(0.1902479 1.1306165e-12 0)
(0.1902479 1.1661853e-12 0)
(0.1902479 1.1422178e-12 0)
(0.1902479 1.1762014e-12 0)
(0.1902479 1.163768e-12 0)
(0.1902479 1.1767017e-12 0)
(0.1902479 1.1444589e-12 0)
(0.1902479 1.2042596e-12 0)
(0.1902479 1.2106193e-12 0)
(0.1902479 1.2765941e-12 0)
(0.1902479 1.2276542e-12 0)
(0.1902479 1.2295833e-12 0)
(0.1902479 1.1524844e-12 0)
(0.1902479 1.2151139e-12 0)
(0.1902479 1.2388499e-12 0)
(0.1902479 1.3369761e-12 0)
(0.1902479 1.1739522e-12 0)
(0.1902479 1.0003792e-12 0)
(0.1902479 8.6467654e-13 0)
(0.1902479 1.349358e-12 0)
(0.1902479 2.0429344e-12 0)
(0.1902479 2.8544685e-12 0)
(0.1902479 3.024367e-12 0)
(0.1902479 2.3470588e-12 0)
(0.1902479 9.9407003e-13 0)
(0.1902479 -2.5836463e-13 0)
(0.1902479 -9.8286306e-13 0)
(0.1902479 -9.7441753e-13 0)
(0.1902479 -9.3437507e-13 0)
(0.1902479 -1.090678e-12 0)
(0.1902479 -1.8311761e-12 0)
(0.1902479 -2.5644699e-12 0)
(0.1902479 -2.9477364e-12 0)
(0.1902479 -2.405624e-12 0)
(0.1902479 -1.3347197e-12 0)
(0.1902479 -7.3836893e-14 0)
(0.1902479 6.7322058e-13 0)
(0.1902479 1.1618918e-12 0)
(0.1902479 1.2228995e-12 0)
(0.1902479 1.1199653e-12 0)
(0.1902479 7.8714474e-13 0)
(0.1902479 6.96008e-13 0)
(0.1902479 1.009323e-12 0)
(0.1902479 1.8622911e-12 0)
(0.1902479 2.6715109e-12 0)
(0.1902479 3.1046085e-12 0)
(0.1902479 2.5962174e-12 0)
(0.1902479 1.4345026e-12 0)
(0.1902479 1.6251983e-13 0)
(0.1902479 -7.4159376e-13 0)
(0.1902479 -1.2413775e-12 0)
(0.1902479 -1.1837804e-12 0)
(0.1902479 -9.536407e-13 0)
(0.1902479 -6.125871e-13 0)
(0.1902479 -8.6450406e-13 0)
(0.1902479 -1.6134372e-12 0)
(0.1902479 -2.5761438e-12 0)
(0.1902479 -2.9801842e-12 0)
(0.1902479 -2.8817541e-12 0)
(0.1902479 -1.8925564e-12 0)
(0.1902479 -8.6148866e-13 0)
(0.1902479 4.7411562e-13 0)
(0.1902479 1.5827013e-12 0)
(0.1902479 2.6165148e-12 0)
(0.1902479 2.9852903e-12 0)
(0.1902479 2.4606859e-12 0)
(0.1902479 1.2710741e-12 0)
(0.1902479 -8.023338e-15 0)
(0.1902479 -7.3384017e-13 0)
(0.1902479 -8.2907405e-13 0)
(0.1902479 -8.7019483e-13 0)
(0.1902479 -1.1964895e-12 0)
(0.1902479 -1.9730347e-12 0)
(0.1902479 -2.7405396e-12 0)
(0.1902479 -3.0112292e-12 0)
(0.1902479 -2.3598827e-12 0)
(0.1902479 -1.1914411e-12 0)
(0.1902479 -2.4107539e-14 0)
(0.1902479 6.9737158e-13 0)
(0.1902479 9.5889075e-13 0)
(0.1902479 9.9655814e-13 0)
(0.1902479 8.4767234e-13 0)
(0.1902479 8.4160629e-13 0)
(0.1902479 8.054625e-13 0)
(0.1902479 9.2099454e-13 0)
(0.1902479 7.6412087e-13 0)
(0.1902479 6.2018524e-13 0)
(0.1902479 4.6004208e-13 0)
(0.1902479 9.155328e-13 0)
(0.1902479 1.6493003e-12 0)
(0.1902479 2.5477679e-12 0)
(0.1902479 2.6712848e-12 0)
(0.1902479 2.2004638e-12 0)
(0.1902479 1.0603337e-12 0)
(0.1902479 2.8211491e-13 0)
(0.1902479 -4.796911e-13 0)
(0.1902479 -9.5258326e-13 0)
(0.1902479 -1.791943e-12 0)
(0.1902479 -2.4178778e-12 0)
(0.1902479 -2.7537392e-12 0)
(0.1902479 -2.1904581e-12 0)
(0.1902479 -1.0432789e-12 0)
(0.1902479 1.667063e-13 0)
(0.1902479 9.7648732e-13 0)
(0.1902479 1.3968638e-12 0)
(0.1902479 1.3930012e-12 0)
(0.1902479 1.3033887e-12 0)
(0.1902479 1.1211362e-12 0)
(0.1902479 1.0879677e-12 0)
(0.1902479 1.0746802e-12 0)
(0.1902479 1.1660074e-12 0)
(0.1902479 1.1909032e-12 0)
(0.1902479 1.2518741e-12 0)
(0.1902479 1.1923116e-12 0)
(0.1902479 1.1501816e-12 0)
(0.1902479 1.1458516e-12 0)
(0.1902479 1.2943802e-12 0)
(0.1902479 1.2308811e-12 0)
(0.1902479 7.1643523e-13 0)
(0.1902479 3.5695952e-13 0)
(0.1902479 1.3391848e-12 0)
(0.1902479 2.9677293e-12 0)
(0.1902479 2.2244705e-12 0)
(0.59346672 0.2146733 0)
(0.54593347 0.075998394 0)
(0.39702192 0.039312269 0)
(0.34953973 0.019720522 0)
(0.30792187 0.0107267 0)
(0.28963523 0.006158343 0)
(0.27651264 0.0034761539 0)
(0.26994405 0.0020290802 0)
(0.26565503 0.0011409754 0)
(0.26342424 0.00065140186 0)
(0.26206335 0.00035633671 0)
(0.26136077 0.00019488132 0)
(0.26095907 0.00010130243 0)
(0.26076048 5.1598081e-05 0)
(0.260656 2.4320588e-05 0)
(0.26060945 1.0646693e-05 0)
(0.26058866 3.7621134e-06 0)
(0.26058217 7.1241087e-07 0)
(0.26058122 -5.423241e-07 0)
(0.26058278 -8.8420695e-07 0)
(0.2605848 -8.6475136e-07 0)
(0.26058673 -7.058226e-07 0)
(0.26058825 -5.2999554e-07 0)
(0.26058939 -3.7504894e-07 0)
(0.26059018 -2.5559354e-07 0)
(0.26059072 -1.6863044e-07 0)
(0.26059108 -1.086092e-07 0)
(0.2605913 -6.8376289e-08 0)
(0.26059144 -4.2229491e-08 0)
(0.26059153 -2.5577208e-08 0)
(0.26059159 -1.5212137e-08 0)
(0.26059162 -8.8758942e-09 0)
(0.26059163 -5.0811016e-09 0)
(0.26059165 -2.846742e-09 0)
(0.26059165 -1.5559916e-09 0)
(0.26059165 -8.2484449e-10 0)
(0.26059166 -4.2085937e-10 0)
(0.26059166 -2.0494681e-10 0)
(0.26059166 -9.3424333e-11 0)
(0.26059166 -3.6657039e-11 0)
(0.26059166 -8.7419142e-12 0)
(0.26059166 3.4089324e-12 0)
(0.26059166 6.2826273e-12 0)
(0.26059166 6.4758933e-12 0)
(0.26059166 5.9533858e-12 0)
(0.26059166 6.0065716e-12 0)
(0.26059166 4.1646729e-12 0)
(0.26059166 1.6034465e-12 0)
(0.26059166 -1.5668332e-12 0)
(0.26059166 -3.0753673e-12 0)
(0.26059166 -4.184284e-12 0)
(0.26059166 -4.3294386e-12 0)
(0.26059166 -4.2654683e-12 0)
(0.26059166 -3.0512486e-12 0)
(0.26059166 -2.1774355e-12 0)
(0.26059166 -1.1470752e-12 0)
(0.26059166 -6.559015e-13 0)
(0.26059166 -3.3639283e-13 0)
(0.26059166 -8.216427e-13 0)
(0.26059166 -1.0689075e-12 0)
(0.26059166 -1.3175409e-12 0)
(0.26059166 -1.4905313e-12 0)
(0.26059166 -1.172312e-12 0)
(0.26059166 -1.0107303e-12 0)
(0.26059166 -3.643359e-13 0)
(0.26059166 -1.2273769e-13 0)
(0.26059166 7.749261e-15 0)
(0.26059166 -4.3511213e-13 0)
(0.26059166 -7.6465146e-13 0)
(0.26059166 -1.1928035e-12 0)
(0.26059166 -1.1691009e-12 0)
(0.26059166 -1.4585762e-12 0)
(0.26059166 -1.3407515e-12 0)
(0.26059166 -1.520722e-12 0)
(0.26059166 -1.1613893e-12 0)
(0.26059166 -1.2199351e-12 0)
(0.26059166 -1.2989033e-12 0)
(0.26059166 -2.0976318e-12 0)
(0.26059166 -2.7833588e-12 0)
(0.26059166 -3.2868524e-12 0)
(0.26059166 -2.6706965e-12 0)
(0.26059166 -1.7088742e-12 0)
(0.26059166 -2.3934168e-13 0)
(0.26059166 7.2080993e-13 0)
(0.26059166 1.4201011e-12 0)
(0.26059166 1.6656084e-12 0)
(0.26059166 1.7089705e-12 0)
(0.26059166 1.6603755e-12 0)
(0.26059166 1.5585435e-12 0)
(0.26059166 1.5684531e-12 0)
(0.26059166 1.5117587e-12 0)
(0.26059166 1.587768e-12 0)