/*--------------------------------*- C++ -*----------------------------------*\
| =========                 |                                                 |
| \\      /  F ield         | OpenFOAM: The Open Source CFD Toolbox           |
|  \\    /   O peration     | Version:  2206                                  |
|   \\  /    A nd           | Website:  www.openfoam.com                      |
|    \\/     M anipulation  |                                                 |
\*---------------------------------------------------------------------------*/
FoamFile
{
    version     2.0;
    format      ascii;
    arch        "LSB;label=32;scalar=64";
    class       surfaceScalarField;
    location    "2";
    object      phi;
}
// * * * * * * * * * * * * * * * * * * * * * * * * * * * * * * * * * * * * * //

dimensions      [0 3 -1 0 0 0 0];

oriented        oriented;

internalField   nonuniform List<scalar> 
29650
(
6.0867649e-05
0.00020579915
3.271817e-05
2.8149482e-05
2.4599021e-05
8.1191506e-06
2.0417849e-05
4.1811728e-06
1.8552178e-05
1.8656709e-06
1.73737e-05
1.1784795e-06
1.6781661e-05
5.9204261e-07
1.6412314e-05
3.6935146e-07
1.622082e-05
1.914989e-07
1.6106686e-05
1.1413856e-07
1.6048258e-05
5.8430155e-08
1.6015474e-05
3.2784847e-08
1.5999542e-05
1.5932195e-08
1.5991376e-05
8.1650445e-09
1.5987889e-05
3.486321e-09
1.598644e-05
1.4479858e-09
1.5986091e-05
3.4924276e-10
1.5986138e-05
-4.8234593e-11
1.5986349e-05
-2.1137764e-10
1.5986569e-05
-2.2010409e-10
1.5986762e-05
-1.9241915e-10
1.5986908e-05
-1.4619865e-10
1.5987014e-05
-1.0619016e-10
1.5987087e-05
-7.2820249e-11
1.5987136e-05
-4.8755052e-11
1.5987167e-05
-3.1565381e-11
1.5987187e-05
-2.0078007e-11
1.59872e-05
-1.246276e-11
1.5987208e-05
-7.6134095e-12
1.5987212e-05
-4.5558333e-12
1.5987215e-05
-2.6836799e-12
1.5987216e-05
-1.5496045e-12
1.5987217e-05
-8.775667e-13
1.5987218e-05
-4.8476354e-13
1.5987218e-05
-2.6046857e-13
1.5987218e-05
-1.356342e-13
1.5987218e-05
-6.795843e-14
1.5987218e-05
-3.2340483e-14
1.5987218e-05
-1.3974665e-14
1.5987218e-05
-4.7518141e-15
1.5987218e-05
-7.2518064e-16
1.5987218e-05
7.5574709e-16
1.5987218e-05
5.5029269e-16
1.5987218e-05
6.2497347e-16
1.5987218e-05
6.7196953e-16
1.5987218e-05
1.5682993e-15
1.5987218e-05
1.7502875e-15
1.5987218e-05
1.6851493e-15
1.5987218e-05
1.0856253e-15
1.5987218e-05
4.9020053e-16
1.5987218e-05
3.1909729e-16
1.5987218e-05
-7.3657449e-17
1.5987218e-05
-5.4546195e-17
1.5987218e-05
-1.728687e-16
1.5987218e-05
-3.4608228e-17
1.5987218e-05
4.6173162e-17
1.5987218e-05
9.2040199e-17
1.5987218e-05
-1.8494628e-16
1.5987218e-05
5.8487218e-17
1.5987218e-05
-3.7912571e-16
1.5987218e-05
-1.1044989e-16
1.5987218e-05
-5.022082e-16
1.5987218e-05
-2.9312813e-16
1.5987218e-05
-5.6788951e-16
1.5987218e-05
-3.8153359e-16
1.5987218e-05
-5.1102627e-16
1.5987218e-05
-3.9013773e-16
1.5987218e-05
-4.6518749e-16
1.5987218e-05
-4.1588262e-16
1.5987218e-05
-5.5513047e-16
1.5987218e-05
-4.4831782e-16
1.5987218e-05
-5.804895e-16
1.5987218e-05
-4.6749688e-16
1.5987218e-05
-5.0545963e-16
1.5987218e-05
-4.4619632e-16
1.5987218e-05
-4.4784325e-16
1.5987218e-05
-4.5503649e-16
1.5987218e-05
-4.4152226e-16
1.5987218e-05
-4.7583016e-16
1.5987218e-05
-4.3264634e-16
1.5987218e-05
-4.8044123e-16
1.5987218e-05
-4.2390308e-16
1.5987218e-05
-4.9638443e-16
1.5987218e-05
-4.2895249e-16
1.5987218e-05
-5.0854573e-16
1.5987218e-05
-4.2284324e-16
1.5987218e-05
-4.9866389e-16
1.5987218e-05
-4.0176826e-16
1.5987218e-05
-4.7785246e-16
1.5987218e-05
-3.759777e-16
1.5987218e-05
-4.5346923e-16
1.5987218e-05
-3.687152e-16
1.5987218e-05
-4.6177861e-16
1.5987218e-05
-3.906652e-16
1.5987218e-05
-4.5665684e-16
1.5987218e-05
-3.7995265e-16
1.5987218e-05
-4.5214799e-16
1.5987218e-05
-4.0436576e-16
1.5987218e-05
-4.6916494e-16
1.5987218e-05
-4.3197293e-16
1.5987218e-05
-5.0137125e-16
1.5987218e-05
-4.8835457e-16
1.5987218e-05
-5.3450509e-16
1.5987218e-05
-4.4501664e-16
1.5987218e-05
-4.4617508e-16
1.5987218e-05
-2.7132401e-16
1.5987218e-05
-1.9772782e-16
1.5987218e-05
7.660859e-17
1.5987218e-05
1.8288481e-16
1.5987218e-05
3.8713868e-16
1.5987218e-05
4.5670823e-16
1.5987218e-05
5.7579163e-16
1.5987218e-05
6.1798655e-16
1.5987218e-05
6.1428367e-16
1.5987218e-05
3.3128842e-16
1.5987218e-05
1.8241263e-16
1.5987218e-05
-8.8640308e-17
1.5987218e-05
-1.7800778e-16
1.5987218e-05
-2.9370249e-16
1.5987218e-05
-3.0784238e-16
1.5987218e-05
-4.1620822e-16
1.5987218e-05
-3.9647749e-16
1.5987218e-05
-4.2315406e-16
1.5987218e-05
-3.2407244e-16
1.5987218e-05
-3.0463235e-16
1.5987218e-05
-2.0478724e-16
1.5987218e-05
-2.1642936e-16
1.5987218e-05
-1.6522749e-16
1.5987218e-05
-2.0165873e-16
1.5987218e-05
-1.7489196e-16
1.5987218e-05
-2.0700982e-16
1.5987218e-05
-1.9586339e-16
1.5987218e-05
-2.2051324e-16
1.5987218e-05
-2.2494452e-16
1.5987218e-05
-2.4334948e-16
1.5987218e-05
-2.6478909e-16
1.5987218e-05
-2.8063659e-16
1.5987218e-05
-3.0970099e-16
1.5987218e-05
-3.2755931e-16
1.5987218e-05
-3.7128607e-16
1.5987218e-05
-3.7900782e-16
1.5987218e-05
-4.2222941e-16
1.5987218e-05
-4.3094608e-16
1.5987218e-05
-4.4930934e-16
1.5987218e-05
-4.5449061e-16
1.5987218e-05
-4.428799e-16
1.5987218e-05
-4.606548e-16
1.5987218e-05
-4.3038434e-16
1.5987218e-05
-4.4070654e-16
1.5987218e-05
-3.6766437e-16
1.5987218e-05
-4.1444734e-16
1.5987218e-05
-4.2901772e-16
1.5987218e-05
-5.730415e-16
1.5987218e-05
-5.1553405e-16
1.5987218e-05
-4.2423513e-16
1.5987218e-05
-1.3169664e-16
1.5987218e-05
2.4479305e-17
1.5987218e-05
2.1617718e-16
1.5987218e-05
1.89239e-16
1.5987218e-05
2.9676047e-16
1.5987218e-05
3.3877133e-16
1.5987218e-05
4.7120431e-16
1.5987218e-05
4.9877992e-16
1.5987218e-05
5.6009585e-16
1.5987218e-05
4.9156273e-16
1.5987218e-05
5.0851374e-16
1.5987218e-05
4.5487211e-16
1.5987218e-05
4.8041018e-16
1.5987218e-05
4.3690154e-16
1.5987218e-05
4.4625015e-16
1.5987218e-05
4.1787003e-16
1.5987218e-05
4.787246e-16
1.5987218e-05
5.1492922e-16
1.5987218e-05
5.4039919e-16
1.5987218e-05
4.3323322e-16
1.5987218e-05
2.3693866e-16
1.5987218e-05
-1.3484047e-17
1.5987218e-05
-1.6052732e-16
1.5987218e-05
-2.4563201e-16
1.5987218e-05
-2.8213545e-16
1.5987218e-05
-3.3579707e-16
1.5987218e-05
-3.578492e-16
1.5987218e-05
-3.6740722e-16
1.5987218e-05
-3.4824046e-16
1.5987218e-05
-3.2017685e-16
1.5987218e-05
-2.8884068e-16
1.5987218e-05
-2.2568437e-16
1.5987218e-05
-1.9784788e-16
1.5987218e-05
-1.9504412e-16
1.5987218e-05
-3.0223943e-16
1.5987218e-05
-3.558364e-16
1.5987218e-05
-3.6418767e-16
1.5987218e-05
-1.675067e-16
1.5987218e-05
4.363171e-17
1.5987218e-05
3.3459016e-16
1.5987218e-05
4.6281776e-16
1.5987218e-05
5.7959573e-16
1.5987218e-05
5.6100528e-16
1.5987218e-05
6.3778089e-16
1.5987218e-05
6.1355768e-16
1.5987218e-05
6.5883202e-16
1.5987218e-05
5.4486693e-16
1.5987218e-05
4.5142269e-16
1.5987218e-05
1.6875939e-16
1.5987218e-05
-4.7724221e-17
1.5987218e-05
-3.2111525e-16
1.5987218e-05
-4.2673708e-16
1.5987218e-05
-4.6777587e-16
1.5987218e-05
-3.4396602e-16
1.5987218e-05
-2.0277062e-16
1.5987218e-05
4.5454193e-17
1.5987218e-05
2.3355581e-16
1.5987218e-05
4.5988526e-16
1.5987218e-05
5.4967989e-16
1.5987218e-05
5.8998713e-16
1.5987218e-05
4.2699188e-16
1.5987218e-05
2.0981305e-16
1.5987218e-05
-5.9044502e-17
1.5987218e-05
-1.6520289e-16
1.5987218e-05
-3.2123605e-16
1.5987218e-05
-4.1733535e-16
1.5987218e-05
-5.4131739e-16
1.5987218e-05
-4.1633211e-16
1.5987218e-05
-2.7650415e-16
1.5987218e-05
2.7732392e-17
1.5987218e-05
1.3590845e-16
1.5987218e-05
1.3280058e-16
1.5987218e-05
-8.017218e-17
1.5987218e-05
-2.1135163e-16
1.5987218e-05
-4.2228411e-16
1.5987218e-05
-5.2012237e-16
1.5987218e-05
-6.3782518e-16
1.5987218e-05
-5.9503426e-16
1.5987218e-05
-4.8620592e-16
1.5987218e-05
-1.830325e-16
1.5987218e-05
2.9146867e-18
1.5987218e-05
1.2207597e-16
1.5987218e-05
1.4537661e-16
1.5987218e-05
2.9023721e-16
1.5987218e-05
3.9988737e-16
1.5987218e-05
4.8323784e-16
1.5987218e-05
3.5713291e-16
1.5987218e-05
1.5645314e-16
1.5987218e-05
-1.6283856e-16
1.5987218e-05
-3.7003432e-16
1.5987218e-05
-4.5190936e-16
1.5987218e-05
-3.1550639e-16
1.5987218e-05
-1.4086825e-16
1.5987218e-05
1.1348327e-16
1.5987218e-05
2.91724e-16
1.5987218e-05
3.3542652e-16
1.5987218e-05
1.9677062e-16
1.5987218e-05
-4.317743e-17
1.5987218e-05
-2.8414801e-16
1.5987218e-05
-3.7962237e-16
1.5987218e-05
-3.0372325e-16
1.5987218e-05
-1.3490811e-16
1.5987218e-05
6.8078676e-17
1.5987218e-05
1.9064371e-16
1.5987218e-05
2.2185764e-16
1.5987218e-05
1.037046e-16
1.5987218e-05
-4.1597983e-17
1.5987218e-05
-2.7083777e-16
1.5987218e-05
-3.9393463e-16
1.5987218e-05
-4.5968668e-16
1.5987218e-05
-3.5939176e-16
1.5987218e-05
-2.5067221e-16
1.5987218e-05
-6.0343798e-18
1.5987218e-05
1.3697368e-16
1.5987218e-05
2.9172572e-16
1.5987218e-05
2.5154281e-16
1.5987218e-05
1.8384409e-16
1.5987218e-05
-7.5167409e-17
1.5987218e-05
-2.6614174e-16
1.5987218e-05
-4.362934e-16
1.5987218e-05
-4.2022443e-16
1.5987218e-05
-3.2335915e-16
1.5987218e-05
-6.7295602e-17
1.5987218e-05
1.7636001e-16
1.5987218e-05
3.575691e-16
1.5987218e-05
3.478942e-16
1.5987218e-05
2.3781957e-16
1.5987218e-05
-9.8280843e-18
1.5987218e-05
-2.1159956e-16
1.5987218e-05
-2.7132934e-16
1.5987218e-05
-1.5052484e-16
1.5987218e-05
4.6222399e-17
1.5987218e-05
2.5032018e-16
1.5987218e-05
3.0710346e-16
1.5987218e-05
2.2558385e-16
1.5987218e-05
6.1679019e-17
1.5987218e-05
-9.9239697e-17
1.5987218e-05
-2.1262943e-16
1.5987218e-05
-2.2482005e-16
1.5987218e-05
-2.0937386e-16
1.5987218e-05
-3.2168578e-16
1.5987218e-05
-5.6948263e-16
1.5987218e-05
-6.0337198e-16
1.5987218e-05
-2.4982797e-16
1.0057209e-16
0.00014027132
0.00033219464
9.2549244e-05
7.5871562e-05
7.0338073e-05
3.0330321e-05
5.9620314e-05
1.4898927e-05
5.4019642e-05
7.4663369e-06
5.0795343e-05
4.4027748e-06
4.9011049e-05
2.3763376e-06
4.7964744e-05
1.4156608e-06
4.7384384e-05
7.7186597e-07
4.7052233e-05
4.4629563e-07
4.6872682e-05
2.3798655e-07
4.677453e-05
1.3093992e-07
4.6724187e-05
6.6277422e-08
4.6698685e-05
3.3667077e-08
4.6686925e-05
1.5246458e-08
4.6681893e-05
6.4793203e-09
4.6680252e-05
1.9894376e-09
4.6680058e-05
1.4510812e-10
4.6680445e-05
-5.9846487e-10
4.6680961e-05
-7.3695927e-10
4.6681443e-05
-6.7404282e-10
4.6681826e-05
-5.2965135e-10
4.668211e-05
-3.9026261e-10
4.6682309e-05
-2.7177642e-10
4.6682444e-05
-1.8341971e-10
4.6682532e-05
-1.1988229e-10
4.6682589e-05
-7.6703838e-11
4.6682624e-05
-4.7953597e-11
4.6682646e-05
-2.9448406e-11
4.6682659e-05
-1.7731135e-11
4.6682667e-05
-1.0495853e-11
4.6682672e-05
-6.0951067e-12
4.6682674e-05
-3.4715593e-12
4.6682676e-05
-1.9314743e-12
4.6682676e-05
-1.0461606e-12
4.6682677e-05
-5.4921981e-13
4.6682677e-05
-2.7728935e-13
4.6682677e-05
-1.3286249e-13
4.6682677e-05
-5.7898525e-14
4.6682677e-05
-2.0600731e-14
4.6682677e-05
-3.6224814e-15
4.6682677e-05
2.5432859e-15
4.6682677e-05
3.3000141e-15
4.6682677e-05
3.0760771e-15
4.6682677e-05
3.3206427e-15
4.6682677e-05
4.5256806e-15
4.6682677e-05
4.654426e-15
4.6682677e-05
3.6496053e-15
4.6682677e-05
2.1864701e-15
4.6682677e-05
3.2479242e-16
4.6682677e-05
-9.9235754e-17
4.6682677e-05
-1.2024191e-15
4.6682677e-05
-1.0325742e-15
4.6682677e-05
-1.2758521e-15
4.6682677e-05
-6.3412e-16
4.6682677e-05
-3.0483424e-16
4.6682677e-05
1.281942e-17
4.6682677e-05
-6.9765311e-16
4.6682677e-05
1.4297866e-18
4.6682677e-05
-1.003126e-15
4.6682677e-05
-3.9469575e-16
4.6682677e-05
-1.1887259e-15
4.6682677e-05
-8.6375413e-16
4.6682677e-05
-1.335819e-15
4.6682677e-05
-9.8772125e-16
4.6682677e-05
-1.0846561e-15
4.6682677e-05
-7.843277e-16
4.6682677e-05
-7.8672425e-16
4.6682677e-05
-6.2699896e-16
4.6682677e-05
-8.9671864e-16
4.6682677e-05
-6.7601586e-16
4.6682677e-05
-9.96464e-16
4.6682677e-05
-7.3006096e-16
4.6682677e-05
-7.8905764e-16
4.6682677e-05
-6.3458301e-16
4.6682677e-05
-6.4898621e-16
4.6682677e-05
-6.4452016e-16
4.6682677e-05
-6.697279e-16
4.6682677e-05
-7.1132171e-16
4.6682677e-05
-6.7921155e-16
4.6682677e-05
-7.1906567e-16
4.6682677e-05
-6.6491492e-16
4.6682677e-05
-7.4992186e-16
4.6682677e-05
-6.9173178e-16
4.6682677e-05
-7.9734646e-16
4.6682677e-05
-7.0701541e-16
4.6682677e-05
-8.0546343e-16
4.6682677e-05
-6.9281261e-16
4.6682677e-05
-7.8981513e-16
4.6682677e-05
-6.6122992e-16
4.6682677e-05
-7.6342792e-16
4.6682677e-05
-6.7269561e-16
4.6682677e-05
-8.228206e-16
4.6682677e-05
-7.5017565e-16
4.6682677e-05
-8.3007851e-16
4.6682677e-05
-7.3418604e-16
4.6682677e-05
-8.3818035e-16
4.6682677e-05
-7.7525973e-16
4.6682677e-05
-8.3953205e-16
4.6682677e-05
-7.983514e-16
4.6682677e-05
-9.3072184e-16
4.6682677e-05
-9.6564317e-16
4.6682677e-05
-9.6764563e-16
4.6682677e-05
-7.5715193e-16
4.6682677e-05
-6.2775874e-16
4.6682677e-05
-3.722614e-16
4.6682677e-05
-2.7379636e-16
4.6682677e-05
1.5191137e-16
4.6682677e-05
3.3684128e-16
4.6682677e-05
7.4492992e-16
4.6682677e-05
9.1648274e-16
4.6682677e-05
1.1694618e-15
4.6682677e-05
1.2648988e-15
4.6682677e-05
1.1904406e-15
4.6682677e-05
4.269388e-16
4.6682677e-05
3.5130144e-17
4.6682677e-05
-6.2201402e-16
4.6682677e-05
-6.7008216e-16
4.6682677e-05
-7.088379e-16
4.6682677e-05
-5.964972e-16
4.6682677e-05
-7.6309937e-16
4.6682677e-05
-7.4936201e-16
4.6682677e-05
-8.3624164e-16
4.6682677e-05
-6.3329301e-16
4.6682677e-05
-5.7917108e-16
4.6682677e-05
-3.2608774e-16
4.6682677e-05
-3.3037616e-16
4.6682677e-05
-1.8245223e-16
4.6682677e-05
-2.6337228e-16
4.6682677e-05
-1.7697738e-16
4.6682677e-05
-2.6417298e-16
4.6682677e-05
-2.1008982e-16
4.6682677e-05
-2.9098443e-16
4.6682677e-05
-2.6686705e-16
4.6682677e-05
-3.4226292e-16
4.6682677e-05
-3.5352814e-16
4.6682677e-05
-4.2273026e-16
4.6682677e-05
-4.4631091e-16
4.6682677e-05
-5.1666727e-16
4.6682677e-05
-5.7047592e-16
4.6682677e-05
-6.1866566e-16
4.6682677e-05
-6.7079977e-16
4.6682677e-05
-7.1041855e-16
4.6682677e-05
-7.2338057e-16
4.6682677e-05
-7.3822943e-16
4.6682677e-05
-7.0370478e-16
4.6682677e-05
-7.4087972e-16
4.6682677e-05
-6.8235991e-16
4.6682677e-05
-6.8081283e-16
4.6682677e-05
-5.2328098e-16
4.6682677e-05
-6.2111256e-16
4.6682677e-05
-7.1588017e-16
4.6682677e-05
-1.0177573e-15
4.6682677e-05
-9.1512907e-16
4.6682677e-05
-5.2359396e-16
4.6682677e-05
1.2561143e-16
4.6682677e-05
5.3362386e-16
4.6682677e-05
7.4702989e-16
4.6682677e-05
4.9658953e-16
4.6682677e-05
5.4760601e-16
4.6682677e-05
5.9814554e-16
4.6682677e-05
8.2589691e-16
4.6682677e-05
9.1640781e-16
4.6682677e-05
1.018636e-15
4.6682677e-05
9.1499817e-16
4.6682677e-05
9.4482754e-16
4.6682677e-05
8.4734703e-16
4.6682677e-05
8.780475e-16
4.6682677e-05
7.8616107e-16
4.6682677e-05
7.7692993e-16
4.6682677e-05
7.4339524e-16
4.6682677e-05
8.7634274e-16
4.6682677e-05
9.8708007e-16
4.6682677e-05
9.8839799e-16
4.6682677e-05
6.3468626e-16
4.6682677e-05
1.4764287e-16
4.6682677e-05
-4.1285483e-16
4.6682677e-05
-6.3364516e-16
4.6682677e-05
-6.0997597e-16
4.6682677e-05
-5.9233869e-16
4.6682677e-05
-6.0933844e-16
4.6682677e-05
-6.924309e-16
4.6682677e-05
-6.9047604e-16
4.6682677e-05
-7.1042801e-16
4.6682677e-05
-6.2194967e-16
4.6682677e-05
-5.8223341e-16
4.6682677e-05
-3.9015675e-16
4.6682677e-05
-3.3235021e-16
4.6682677e-05
-3.3276638e-16
4.6682677e-05
-6.0183238e-16
4.6682677e-05
-7.3054392e-16
4.6682677e-05
-7.1107839e-16
4.6682677e-05
-1.2024296e-16
4.6682677e-05
4.1163876e-16
4.6682677e-05
1.0584015e-15
4.6682677e-05
1.2116292e-15
4.6682677e-05
1.2039978e-15
4.6682677e-05
1.0752802e-15
4.6682677e-05
1.165088e-15
4.6682677e-05
1.1812632e-15
4.6682677e-05
1.3159788e-15
4.6682677e-05
1.0893181e-15
4.6682677e-05
7.7285548e-16
4.6682677e-05
9.4330019e-17
4.6682677e-05
-4.3154616e-16
4.6682677e-05
-9.7391219e-16
4.6682677e-05
-1.0456856e-15
4.6682677e-05
-9.288349e-16
4.6682677e-05
-5.2243595e-16
4.6682677e-05
-8.0766773e-17
4.6682677e-05
4.18061e-16
4.6682677e-05
7.355929e-16
4.6682677e-05
1.0735258e-15
4.6682677e-05
1.0925772e-15
4.6682677e-05
1.0940194e-15
4.6682677e-05
5.7971759e-16
4.6682677e-05
1.0262144e-16
4.6682677e-05
-4.0851254e-16
4.6682677e-05
-4.7420925e-16
4.6682677e-05
-6.6853092e-16
4.6682677e-05
-8.5204308e-16
4.6682677e-05
-1.0668931e-15
4.6682677e-05
-7.3245146e-16
4.6682677e-05
-3.0290326e-16
4.6682677e-05
4.1574524e-16
4.6682677e-05
5.0171517e-16
4.6682677e-05
2.0797595e-16
4.6682677e-05
-4.5069067e-16
4.6682677e-05
-9.08092e-16
4.6682677e-05
-1.2651904e-15
4.6682677e-05
-1.3130263e-15
4.6682677e-05
-1.3857737e-15
4.6682677e-05
-1.0738429e-15
4.6682677e-05
-7.4340339e-16
4.6682677e-05
-1.1057671e-17
4.6682677e-05
3.0792018e-16
4.6682677e-05
3.0834609e-16
4.6682677e-05
2.3532319e-16
4.6682677e-05
4.329684e-16
4.6682677e-05
7.3676725e-16
4.6682677e-05
8.5463066e-16
4.6682677e-05
6.0377053e-16
4.6682677e-05
-2.6359587e-17
4.6682677e-05
-6.9746054e-16
4.6682677e-05
-1.0867968e-15
4.6682677e-05
-1.0317248e-15
4.6682677e-05
-4.5105031e-16
4.6682677e-05
1.1026529e-16
4.6682677e-05
7.4580317e-16
4.6682677e-05
1.0383293e-15
4.6682677e-05
8.5974327e-16
4.6682677e-05
3.4421497e-16
4.6682677e-05
-3.7548137e-16
4.6682677e-05
-9.0338152e-16
4.6682677e-05
-8.6581048e-16
4.6682677e-05
-4.401959e-16
4.6682677e-05
1.4789502e-16
4.6682677e-05
6.5917902e-16
4.6682677e-05
7.8181744e-16
4.6682677e-05
5.3072711e-16
4.6682677e-05
6.2377642e-17
4.6682677e-05
-4.8587282e-16
4.6682677e-05
-9.3704264e-16
4.6682677e-05
-1.0808374e-15
4.6682677e-05
-9.297463e-16
4.6682677e-05
-4.8811364e-16
4.6682677e-05
-1.3462505e-16
4.6682677e-05
3.7446857e-16
4.6682677e-05
5.7016458e-16
4.6682677e-05
6.3708471e-16
4.6682677e-05
3.9664134e-16
4.6682677e-05
3.305256e-17
4.6682677e-05
-6.0572815e-16
4.6682677e-05
-1.021659e-15
4.6682677e-05
-1.1994176e-15
4.6682677e-05
-9.3599663e-16
4.6682677e-05
-4.6704691e-16
4.6682677e-05
1.7948263e-16
4.6682677e-05
7.3855175e-16
4.6682677e-05
9.4314237e-16
4.6682677e-05
6.0039436e-16
4.6682677e-05
1.9799183e-16
4.6682677e-05
-5.2062157e-16
4.6682677e-05
-8.2817648e-16
4.6682677e-05
-6.4917896e-16
4.6682677e-05
-1.4467852e-16
4.6682677e-05
5.4534411e-16
4.6682677e-05
9.3480768e-16
4.6682677e-05
8.0809266e-16
4.6682677e-05
3.8425329e-16
4.6682677e-05
-2.4776473e-16
4.6682677e-05
-6.0143014e-16
4.6682677e-05
-7.4583961e-16
4.6682677e-05
-5.2518452e-16
4.6682677e-05
-2.7976572e-16
4.6682677e-05
-5.0289879e-16
4.6682677e-05
-1.1588127e-15
4.6682677e-05
-1.2247666e-15
4.6682677e-05
-8.9151761e-17
6.3534126e-16
0.00019469214
0.0004041693
0.00014360962
0.00012695409
0.00011230147
6.1638463e-05
9.6619294e-05
3.0581106e-05
8.7762221e-05
1.632341e-05
8.2755406e-05
9.409589e-06
7.9871701e-05
5.2600413e-06
7.8206033e-05
3.0813275e-06
7.7256668e-05
1.7212304e-06
7.6718195e-05
9.8476854e-07
7.6420462e-05
5.3571845e-07
7.6258218e-05
2.9318426e-07
7.6172993e-05
1.5150284e-07
7.61296e-05
7.7060402e-08
7.6108851e-05
3.5995526e-08
7.6099695e-05
1.5635151e-08
7.6096324e-05
5.3604823e-09
7.6095587e-05
8.8205383e-10
7.6095937e-05
-9.475946e-10
7.6096611e-05
-1.4115045e-09
7.609729e-05
-1.3533495e-09
7.6097854e-05
-1.0931224e-09
7.609828e-05
-8.1641998e-10
7.6098584e-05
-5.7530126e-10
7.6098791e-05
-3.9107969e-10
7.6098929e-05
-2.5744397e-10
7.6099018e-05
-1.6555281e-10
7.6099074e-05
-1.0405587e-10
7.6099108e-05
-6.4180174e-11
7.609913e-05
-3.8826331e-11
7.6099142e-05
-2.3077737e-11
7.609915e-05
-1.3459432e-11
7.6099154e-05
-7.6989407e-12
7.6099156e-05
-4.3065166e-12
7.6099157e-05
-2.3485288e-12
7.6099158e-05
-1.2425037e-12
7.6099158e-05
-6.3278039e-13
7.6099159e-05
-3.0577612e-13
7.6099159e-05
-1.3560965e-13
7.6099159e-05
-5.0688547e-14
7.6099159e-05
-1.1595443e-14
7.6099159e-05
3.9542521e-15
7.6099159e-05
7.6446115e-15
7.6099159e-05
7.9171388e-15
7.6099159e-05
7.326408e-15
7.6099159e-05
7.7146874e-15
7.6099159e-05
6.8941345e-15
7.6099159e-05
5.3435338e-15
7.6099159e-05
3.2822316e-15
7.6099159e-05
1.0573277e-15
7.6099159e-05
1.7358646e-16
7.6099159e-05
-1.227873e-15
7.6099159e-05
-1.2625451e-15
7.6099159e-05
-1.4883405e-15
7.6099159e-05
-7.9901405e-16
7.6099159e-05
-3.0868961e-16
7.6099159e-05
1.4739974e-16
7.6099159e-05
-3.724311e-16
7.6099159e-05
2.6511427e-16
7.6099159e-05
-6.6985882e-16
7.6099159e-05
-1.4880525e-16
7.6099159e-05
-1.0084669e-15
7.6099159e-05
-7.0265682e-16
7.6099159e-05
-1.2125609e-15
7.6099159e-05
-8.3419928e-16
7.6099159e-05
-9.1465456e-16
7.6099159e-05
-5.8524929e-16
7.6099159e-05
-5.9515162e-16
7.6099159e-05
-4.6160377e-16
7.6099159e-05
-7.1333497e-16
7.6099159e-05
-5.5728541e-16
7.6099159e-05
-8.1464648e-16
7.6099159e-05
-6.103526e-16
7.6099159e-05
-6.2500583e-16
7.6099159e-05
-5.3241433e-16
7.6099159e-05
-5.0150698e-16
7.6099159e-05
-5.6777723e-16
7.6099159e-05
-5.3925652e-16
7.6099159e-05
-6.5975124e-16
7.6099159e-05
-5.6771424e-16
7.6099159e-05
-6.8750001e-16
7.6099159e-05
-5.6551828e-16
7.6099159e-05
-7.237807e-16
7.6099159e-05
-5.8932587e-16
7.6099159e-05
-7.6065753e-16
7.6099159e-05
-5.9220495e-16
7.6099159e-05
-7.5399025e-16
7.6099159e-05
-5.6413893e-16
7.6099159e-05
-7.2222205e-16
7.6099159e-05
-5.2444271e-16
7.6099159e-05
-6.8704927e-16
7.6099159e-05
-5.4009356e-16
7.6099159e-05
-7.4176869e-16
7.6099159e-05
-6.1828474e-16
7.6099159e-05
-7.4990523e-16
7.6099159e-05
-6.100279e-16
7.6099159e-05
-7.5670943e-16
7.6099159e-05
-6.6531396e-16
7.6099159e-05
-7.8400924e-16
7.6099159e-05
-7.3049892e-16
7.6099159e-05
-9.0400087e-16
7.6099159e-05
-9.0580721e-16
7.6099159e-05
-9.500206e-16
7.6099159e-05
-7.0691097e-16
7.6099159e-05
-6.5820551e-16
7.6099159e-05
-3.8929724e-16
7.6099159e-05
-3.8862589e-16
7.6099159e-05
1.6516109e-17
7.6099159e-05
1.12001e-16
7.6099159e-05
5.2291851e-16
7.6099159e-05
6.6936687e-16
7.6099159e-05
9.5782155e-16
7.6099159e-05
1.0251233e-15
7.6099159e-05
9.7991424e-16
7.6099159e-05
1.9646904e-16
7.6099159e-05
-1.4457467e-16
7.6099159e-05
-7.6934748e-16
7.6099159e-05
-7.0463223e-16
7.6099159e-05
-7.4574394e-16
7.6099159e-05
-5.2210067e-16
7.6099159e-05
-6.9909432e-16
7.6099159e-05
-5.9920976e-16
7.6099159e-05
-7.2220374e-16
7.6099159e-05
-4.6470656e-16
7.6099159e-05
-4.6445138e-16
7.6099159e-05
-1.6007826e-16
7.6099159e-05
-2.1113497e-16
7.6099159e-05
-5.5984122e-18
7.6099159e-05
-1.2588003e-16
7.6099159e-05
1.7430739e-17
7.6099159e-05
-1.1035848e-16
7.6099159e-05
-6.3946229e-18
7.6099159e-05
-1.2630801e-16
7.6099159e-05
-6.0317409e-17
7.6099159e-05
-1.7497609e-16
7.6099159e-05
-1.5050341e-16
7.6099159e-05
-2.5882272e-16
7.6099159e-05
-2.5440651e-16
7.6099159e-05
-3.6218906e-16
7.6099159e-05
-3.9010224e-16
7.6099159e-05
-4.7697655e-16
7.6099159e-05
-5.0118068e-16
7.6099159e-05
-5.8001713e-16
7.6099159e-05
-5.6159303e-16
7.6099159e-05
-6.179968e-16
7.6099159e-05
-5.4817484e-16
7.6099159e-05
-6.2356028e-16
7.6099159e-05
-5.2248349e-16
7.6099159e-05
-5.6073343e-16
7.6099159e-05
-3.7333506e-16
7.6099159e-05
-5.0584589e-16
7.6099159e-05
-5.4292309e-16
7.6099159e-05
-8.4986381e-16
7.6099159e-05
-6.6641032e-16
7.6099159e-05
-3.55992e-16
7.6099159e-05
2.8659356e-16
7.6099159e-05
5.6183455e-16
7.6099159e-05
7.2045772e-16
7.6099159e-05
4.1389716e-16
7.6099159e-05
4.4582832e-16
7.6099159e-05
4.617492e-16
7.6099159e-05
7.0849142e-16
7.6099159e-05
7.9984047e-16
7.6099159e-05
9.3168141e-16
7.6099159e-05
8.2330602e-16
7.6099159e-05
8.5501571e-16
7.6099159e-05
7.51506e-16
7.6099159e-05
7.8248565e-16
7.6099159e-05
6.9133442e-16
7.6099159e-05
6.9040139e-16
7.6099159e-05
6.6271989e-16
7.6099159e-05
7.9488342e-16
7.6099159e-05
8.8455084e-16
7.6099159e-05
8.6175821e-16
7.6099159e-05
5.3793223e-16
7.6099159e-05
7.1904363e-17
7.6099159e-05
-3.9611088e-16
7.6099159e-05
-5.5340644e-16
7.6099159e-05
-4.9160066e-16
7.6099159e-05
-4.3582783e-16
7.6099159e-05
-4.3460334e-16
7.6099159e-05
-4.9542147e-16
7.6099159e-05
-4.904375e-16
7.6099159e-05
-5.0321165e-16
7.6099159e-05
-4.1919162e-16
7.6099159e-05
-3.7821579e-16
7.6099159e-05
-1.9301601e-16
7.6099159e-05
-1.540808e-16
7.6099159e-05
-1.4311565e-16
7.6099159e-05
-4.1185898e-16
7.6099159e-05
-4.919071e-16
7.6099159e-05
-4.5972636e-16
7.6099159e-05
1.1196161e-16
7.6099159e-05
5.8827266e-16
7.6099159e-05
1.1863116e-15
7.6099159e-05
1.251393e-15
7.6099159e-05
1.2764316e-15
7.6099159e-05
1.0900184e-15
7.6099159e-05
1.2038577e-15
7.6099159e-05
1.1604004e-15
7.6099159e-05
1.2759771e-15
7.6099159e-05
9.7644764e-16
7.6099159e-05
6.9046767e-16
7.6099159e-05
-5.6871447e-18
7.6099159e-05
-4.4766146e-16
7.6099159e-05
-9.4657838e-16
7.6099159e-05
-9.3170627e-16
7.6099159e-05
-8.1286009e-16
7.6099159e-05
-3.5910304e-16
7.6099159e-05
7.8468158e-18
7.6099159e-05
4.9933189e-16
7.6099159e-05
7.1477936e-16
7.6099159e-05
1.0296243e-15
7.6099159e-05
9.8423079e-16
7.6099159e-05
9.8453208e-16
7.6099159e-05
4.7657662e-16
7.6099159e-05
8.1406407e-17
7.6099159e-05
-3.9396192e-16
7.6099159e-05
-3.765831e-16
7.6099159e-05
-5.8435805e-16
7.6099159e-05
-6.7000843e-16
7.6099159e-05
-9.0299662e-16
7.6099159e-05
-5.3693487e-16
7.6099159e-05
-2.2048637e-16
7.6099159e-05
3.8883744e-16
7.6099159e-05
3.1646161e-16
7.6099159e-05
5.71118e-18
7.6099159e-05
-7.020778e-16
7.6099159e-05
-1.0638873e-15
7.6099159e-05
-1.4005417e-15
7.6099159e-05
-1.3529393e-15
7.6099159e-05
-1.360568e-15
7.6099159e-05
-1.0057908e-15
7.6099159e-05
-6.6526349e-16
7.6099159e-05
6.9812608e-18
7.6099159e-05
2.4014385e-16
7.6099159e-05
2.3975189e-16
7.6099159e-05
1.0851509e-16
7.6099159e-05
3.0534186e-16
7.6099159e-05
5.3262092e-16
7.6099159e-05
6.4919173e-16
7.6099159e-05
3.638248e-16
7.6099159e-05
-1.7006962e-16
7.6099159e-05
-7.7299511e-16
7.6099159e-05
-1.0359352e-15
7.6099159e-05
-8.8753097e-16
7.6099159e-05
-2.9263591e-16
7.6099159e-05
2.79011e-16
7.6099159e-05
8.6303252e-16
7.6099159e-05
1.0640267e-15
7.6099159e-05
8.5080978e-16
7.6099159e-05
2.9785375e-16
7.6099159e-05
-3.517335e-16
7.6099159e-05
-8.1126265e-16
7.6099159e-05
-7.3099928e-16
7.6099159e-05
-2.8993967e-16
7.6099159e-05
2.6067068e-16
7.6099159e-05
6.78969e-16
7.6099159e-05
7.2143817e-16
7.6099159e-05
4.0759481e-16
7.6099159e-05
-9.943201e-17
7.6099159e-05
-6.0026542e-16
7.6099159e-05
-1.0092624e-15
7.6099159e-05
-1.0471808e-15
7.6099159e-05
-8.4796638e-16
7.6099159e-05
-3.9288328e-16
7.6099159e-05
-6.274117e-17
7.6099159e-05
3.7553946e-16
7.6099159e-05
4.6946509e-16
7.6099159e-05
4.6101448e-16
7.6099159e-05
1.1862077e-16
7.6099159e-05
-2.5179576e-16
7.6099159e-05
-8.7733264e-16
7.6099159e-05
-1.199447e-15
7.6099159e-05
-1.3053629e-15
7.6099159e-05
-9.4848673e-16
7.6099159e-05
-4.8297239e-16
7.6099159e-05
1.8085635e-16
7.6099159e-05
6.4889162e-16
7.6099159e-05
8.1332347e-16
7.6099159e-05
4.6267664e-16
7.6099159e-05
6.1235934e-17
7.6099159e-05
-5.5812104e-16
7.6099159e-05
-7.6939843e-16
7.6099159e-05
-5.5898996e-16
7.6099159e-05
1.8006217e-17
7.6099159e-05
6.060641e-16
7.6099159e-05
9.6399275e-16
7.6099159e-05
7.6846571e-16
7.6099159e-05
3.0452946e-16
7.6099159e-05
-2.8566596e-16
7.6099159e-05
-6.1388165e-16
7.6099159e-05
-7.006232e-16
7.6099159e-05
-4.3777551e-16
7.6099159e-05
-2.1474344e-16
7.6099159e-05
-4.0462382e-16
7.6099159e-05
-9.8142334e-16
7.6099159e-05
-9.6394102e-16
7.6099159e-05
9.831109e-18
6.3185357e-16
0.00023312986
0.00043770623
0.00018548527
0.00017459868
0.00015018421
9.6939512e-05
0.0001310242
4.974111e-05
0.00011965162
2.769598e-05
0.0001131446
1.5916601e-05
0.00010931814
9.0864927e-06
0.00010710183
5.2976295e-06
0.00010582149
3.001562e-06
0.00010509347
1.7127942e-06
0.00010468612
9.4306379e-07
0.00010446306
5.1624391e-07
0.00010434425
2.7031887e-07
0.00010428311
1.3819758e-07
0.00010425319
6.5916316e-08
0.00010423959
2.9235371e-08
0.0001042342
1.075253e-08
0.00010423268
2.4042407e-09
0.00010423281
-1.0816029e-09
0.00010423352
-2.1172951e-09
0.00010423431
-2.1451362e-09
0.000104235
-1.7801674e-09
0.00010423553
-1.3485125e-09
0.00010423592
-9.6055566e-10
0.00010423618
-6.5764621e-10
0.00010423636
-4.3568256e-10
0.00010423648
-2.815318e-10
0.00010423655
-1.7778712e-10
0.0001042366
-1.1009887e-10
0.00010423662
-6.6877696e-11
0.00010423664
-3.9898253e-11
0.00010423665
-2.3359618e-11
0.00010423666
-1.3415782e-11
0.00010423666
-7.5404301e-12
0.00010423666
-4.1355911e-12
0.00010423666
-2.2026608e-12
0.00010423666
-1.1302223e-12
0.00010423666
-5.5151259e-13
0.00010423666
-2.4871168e-13
0.00010423666
-9.6837962e-14
0.00010423666
-2.577455e-14
0.00010423666
3.4597491e-15
0.00010423666
1.2350485e-14
0.00010423666
1.3704843e-14
0.00010423666
1.2729782e-14
0.00010423666
1.173641e-14
0.00010423666
9.5846383e-15
0.00010423666
6.8462463e-15
0.00010423666
4.3485758e-15
0.00010423666
1.2624604e-15
0.00010423666
-1.4408306e-16
0.00010423666
-2.2713327e-15
0.00010423666
-2.2587301e-15
0.00010423666
-2.280626e-15
0.00010423666
-8.474126e-16
0.00010423666
2.5288406e-16
0.00010423666
1.2502628e-15
0.00010423666
7.9182459e-16
0.00010423666
1.9529701e-15
0.00010423666
6.4268731e-16
0.00010423666
1.2824992e-15
0.00010423666
3.8871529e-17
0.00010423666
2.9426341e-16
0.00010423666
-3.9216582e-16
0.00010423666
1.1419077e-16
0.00010423666
6.8602487e-17
0.00010423666
5.0789311e-16
0.00010423666
4.9135589e-16
0.00010423666
6.0058769e-16
0.00010423666
2.528759e-16
0.00010423666
5.6960765e-16
0.00010423666
1.7878243e-16
0.00010423666
4.5746218e-16
0.00010423666
3.6160399e-16
0.00010423666
4.7247813e-16
0.00010423666
4.4122606e-16
0.00010423666
3.8337956e-16
0.00010423666
3.4725574e-16
0.00010423666
2.2389846e-16
0.00010423666
2.5340771e-16
0.00010423666
1.4608724e-16
0.00010423666
2.3821369e-16
0.00010423666
1.1283459e-16
0.00010423666
2.4016399e-16
0.00010423666
1.0155842e-16
0.00010423666
2.7276733e-16
0.00010423666
1.3456868e-16
0.00010423666
3.3342156e-16
0.00010423666
1.9366137e-16
0.00010423666
3.9602196e-16
0.00010423666
2.4144186e-16
0.00010423666
3.793166e-16
0.00010423666
1.9084081e-16
0.00010423666
3.1380374e-16
0.00010423666
1.9823179e-16
0.00010423666
3.2292164e-16
0.00010423666
1.8774818e-16
0.00010423666
2.7884637e-16
0.00010423666
1.6133009e-16
0.00010423666
1.4375648e-16
0.00010423666
-6.9095061e-17
0.00010423666
-1.0904652e-16
0.00010423666
-1.0646509e-16
0.00010423666
1.6226616e-16
0.00010423666
2.3119148e-16
0.00010423666
2.9734566e-16
0.00010423666
-5.8497361e-17
0.00010423666
-1.0139196e-16
0.00010423666
-4.2121259e-16
0.00010423666
-2.1799151e-16
0.00010423666
-1.9592772e-16
0.00010423666
3.3378311e-17
0.00010423666
-1.3768547e-17
0.00010423666
-1.3675575e-16
0.00010423666
-9.9047249e-16
0.00010423666
-1.1099527e-15
0.00010423666
-1.4598534e-15
0.00010423666
-8.8242319e-16
0.00010423666
-4.714919e-16
0.00010423666
1.7422224e-16
0.00010423666
2.4525356e-16
0.00010423666
4.5909978e-16
0.00010423666
2.815005e-16