/*--------------------------------*- C++ -*----------------------------------*\
| =========                 |                                                 |
| \\      /  F ield         | OpenFOAM: The Open Source CFD Toolbox           |
|  \\    /   O peration     | Version:  2206                                  |
|   \\  /    A nd           | Website:  www.openfoam.com                      |
|    \\/     M anipulation  |                                                 |
\*---------------------------------------------------------------------------*/
FoamFile
{
    version     2.0;
    format      ascii;
    arch        "LSB;label=32;scalar=64";
    class       volVectorField;
    location    "2";
    object      U;
}
// * * * * * * * * * * * * * * * * * * * * * * * * * * * * * * * * * * * * * //

dimensions      [0 1 -1 0 0 0 0];

internalField   nonuniform List<vector> 
15000
(
(0.15962853 0.053997678 0)
(0.11557193 0.0064916413 0)
(0.064251361 0.0014144206 0)
(0.055918598 0.00074960018 0)
(0.047595816 0.00028826853 0)
(0.044708799 0.00019884454 0)
(0.042412494 9.0525084e-05 0)
(0.041406637 6.0132194e-05 0)
(0.040707475 2.8983891e-05 0)
(0.04037699 1.8023441e-05 0)
(0.040167797 8.6645288e-06 0)
(0.04006866 4.9968057e-06 0)
(0.040011054 2.2677002e-06 0)
(0.039985308 1.1734378e-06 0)
(0.039971973 4.4620611e-07 0)
(0.039967049 1.734852e-07 0)
(0.03996518 1.3801155e-08 0)
(0.039965128 -3.0392495e-08 0)
(0.039965544 -4.8798962e-08 0)
(0.039966152 -4.3319256e-08 0)
(0.03996668 -3.577616e-08 0)
(0.039967111 -2.6032297e-08 0)
(0.039967422 -1.8511052e-08 0)
(0.039967642 -1.2419056e-08 0)
(0.03996779 -8.2114979e-09 0)
(0.039967887 -5.2421646e-09 0)
(0.039967949 -3.3036186e-09 0)
(0.039967988 -2.0281613e-09 0)
(0.039968012 -1.2285138e-09 0)
(0.039968026 -7.281819e-10 0)
(0.039968035 -4.2595522e-10 0)
(0.03996804 -2.4414233e-10 0)
(0.039968042 -1.3718666e-10 0)
(0.039968044 -7.4935485e-11 0)
(0.039968045 -3.96976e-11 0)
(0.039968045 -2.0424707e-11 0)
(0.039968045 -1.0192066e-11 0)
(0.039968046 -4.8756359e-12 0)
(0.039968046 -2.1029126e-12 0)
(0.039968046 -6.7166162e-13 0)
(0.039968046 -5.7782727e-14 0)
(0.039968046 1.3203953e-13 0)
(0.039968046 -2.1456976e-14 0)
(0.039968046 -2.9358773e-14 0)
(0.039968046 4.3771521e-14 0)
(0.039968046 3.5370946e-13 0)
(0.039968046 5.0114555e-13 0)
(0.039968046 5.0988955e-13 0)
(0.039968046 3.4155991e-13 0)
(0.039968046 1.4547623e-13 0)
(0.039968046 1.3598866e-13 0)
(0.039968046 1.3220604e-14 0)
(0.039968046 4.406159e-14 0)
(0.039968046 -2.532521e-14 0)
(0.039968046 -1.2444315e-14 0)
(0.039968046 -3.4520975e-14 0)
(0.039968046 -5.1420645e-14 0)
(0.039968046 -1.5080951e-13 0)
(0.039968046 -1.0686825e-13 0)
(0.039968046 -2.2182794e-13 0)
(0.039968046 -1.447178e-13 0)
(0.039968046 -2.3051616e-13 0)
(0.039968046 -1.6838366e-13 0)
(0.039968046 -2.3151958e-13 0)
(0.039968046 -1.9195544e-13 0)
(0.039968046 -2.2964915e-13 0)
(0.039968046 -2.0794732e-13 0)
(0.039968046 -2.2759716e-13 0)
(0.039968046 -2.1346557e-13 0)
(0.039968046 -2.3900658e-13 0)
(0.039968046 -2.2769806e-13 0)
(0.039968046 -2.4986487e-13 0)
(0.039968046 -2.2760705e-13 0)
(0.039968046 -2.2233872e-13 0)
(0.039968046 -2.1338743e-13 0)
(0.039968046 -2.015116e-13 0)
(0.039968046 -2.119777e-13 0)
(0.039968046 -1.9732551e-13 0)
(0.039968046 -2.1399277e-13 0)
(0.039968046 -1.9245656e-13 0)
(0.039968046 -2.1323827e-13 0)
(0.039968046 -1.908718e-13 0)
(0.039968046 -2.1906262e-13 0)
(0.039968046 -1.9512163e-13 0)
(0.039968046 -2.2340561e-13 0)
(0.039968046 -1.9587568e-13 0)
(0.039968046 -2.2063813e-13 0)
(0.039968046 -1.9125045e-13 0)
(0.039968046 -2.1510188e-13 0)
(0.039968046 -1.8450306e-13 0)
(0.039968046 -2.0804277e-13 0)
(0.039968046 -1.8192761e-13 0)
(0.039968046 -2.1127168e-13 0)
(0.039968046 -1.9087124e-13 0)
(0.039968046 -2.1136764e-13 0)
(0.039968046 -1.8808641e-13 0)
(0.039968046 -2.1068617e-13 0)
(0.039968046 -1.9688569e-13 0)
(0.039968046 -2.1690522e-13 0)
(0.039968046 -2.0281399e-13 0)
(0.039968046 -2.22295e-13 0)
(0.039968046 -2.1731822e-13 0)
(0.039968046 -2.3559915e-13 0)
(0.039968046 -2.1765127e-13 0)
(0.039968046 -2.1670702e-13 0)
(0.039968046 -1.4751989e-13 0)
(0.039968046 -9.1206286e-14 0)
(0.039968046 2.8497245e-14 0)
(0.039968046 9.3340998e-14 0)
(0.039968046 1.7246969e-13 0)
(0.039968046 2.0350354e-13 0)
(0.039968046 2.453832e-13 0)
(0.039968046 2.6921256e-13 0)
(0.039968046 2.7467082e-13 0)
(0.039968046 1.8597346e-13 0)
(0.039968046 1.3714596e-13 0)
(0.039968046 2.0653907e-14 0)
(0.039968046 -4.1671161e-14 0)
(0.039968046 -1.1513855e-13 0)
(0.039968046 -1.5164316e-13 0)
(0.039968046 -2.0528984e-13 0)
(0.039968046 -2.036967e-13 0)
(0.039968046 -2.0900049e-13 0)
(0.039968046 -1.7333903e-13 0)
(0.039968046 -1.6372346e-13 0)
(0.039968046 -1.3181498e-13 0)
(0.039968046 -1.3714661e-13 0)
(0.039968046 -1.230319e-13 0)
(0.039968046 -1.3705584e-13 0)
(0.039968046 -1.2959368e-13 0)
(0.039968046 -1.4123509e-13 0)
(0.039968046 -1.3744508e-13 0)
(0.039968046 -1.4569494e-13 0)
(0.039968046 -1.4568417e-13 0)
(0.039968046 -1.5159823e-13 0)
(0.039968046 -1.5638356e-13 0)
(0.039968046 -1.6167848e-13 0)
(0.039968046 -1.6805161e-13 0)
(0.039968046 -1.7465098e-13 0)
(0.039968046 -1.8781058e-13 0)
(0.039968046 -1.8883556e-13 0)
(0.039968046 -2.0394386e-13 0)
(0.039968046 -2.0513095e-13 0)
(0.039968046 -2.1249001e-13 0)
(0.039968046 -2.1195295e-13 0)
(0.039968046 -2.0960278e-13 0)
(0.039968046 -2.1300914e-13 0)
(0.039968046 -2.0633566e-13 0)
(0.039968046 -2.0752491e-13 0)
(0.039968046 -1.8480508e-13 0)
(0.039968046 -1.9380474e-13 0)
(0.039968046 -2.0280356e-13 0)
(0.039968046 -2.5652918e-13 0)
(0.039968046 -2.5347992e-13 0)
(0.039968046 -2.2547519e-13 0)
(0.039968046 -1.2016953e-13 0)
(0.039968046 -2.513997e-14 0)
(0.039968046 6.7281867e-14 0)
(0.039968046 9.6725628e-14 0)
(0.039968046 1.533831e-13 0)
(0.039968046 1.8449588e-13 0)
(0.039968046 2.2670353e-13 0)
(0.039968046 2.337254e-13 0)
(0.039968046 2.4501812e-13 0)
(0.039968046 2.2602377e-13 0)
(0.039968046 2.2861648e-13 0)
(0.039968046 2.1355459e-13 0)
(0.039968046 2.2036271e-13 0)
(0.039968046 2.0871999e-13 0)
(0.039968046 2.0898879e-13 0)
(0.039968046 1.9758391e-13 0)
(0.039968046 2.1341902e-13 0)
(0.039968046 2.311106e-13 0)
(0.039968046 2.4729512e-13 0)
(0.039968046 2.2295619e-13 0)
(0.039968046 1.472867e-13 0)
(0.039968046 2.3068287e-14 0)
(0.039968046 -5.2879217e-14 0)
(0.039968046 -1.108975e-13 0)
(0.039968046 -1.4763051e-13 0)
(0.039968046 -1.8038892e-13 0)
(0.039968046 -1.9587775e-13 0)
(0.039968046 -1.9907708e-13 0)
(0.039968046 -1.9202072e-13 0)
(0.039968046 -1.8117294e-13 0)
(0.039968046 -1.7092832e-13 0)
(0.039968046 -1.5019851e-13 0)
(0.039968046 -1.3743556e-13 0)
(0.039968046 -1.3521029e-13 0)
(0.039968046 -1.7065376e-13 0)
(0.039968046 -2.008691e-13 0)
(0.039968046 -2.1174969e-13 0)
(0.039968046 -1.5481086e-13 0)
(0.039968046 -6.7159956e-14 0)
(0.039968046 6.0329089e-14 0)
(0.039968046 1.3717993e-13 0)
(0.039968046 2.0628746e-13 0)
(0.039968046 2.277944e-13 0)
(0.039968046 2.6278684e-13 0)
(0.039968046 2.6196321e-13 0)
(0.039968046 2.8200675e-13 0)
(0.039968046 2.5555368e-13 0)
(0.039968046 2.3185365e-13 0)
(0.039968046 1.3870395e-13 0)
(0.039968046 3.1104571e-14 0)
(0.039968046 -8.9783589e-14 0)
(0.039968046 -1.6460127e-13 0)
(0.039968046 -2.0701355e-13 0)
(0.039968046 -1.9091272e-13 0)
(0.039968046 -1.435566e-13 0)
(0.039968046 -3.2699028e-14 0)
(0.039968046 6.4327431e-14 0)
(0.039968046 1.735706e-13 0)
(0.039968046 2.3813048e-13 0)
(0.039968046 2.7213026e-13 0)
(0.039968046 2.2950445e-13 0)
(0.039968046 1.2926897e-13 0)
(0.039968046 -3.0809087e-15 0)
(0.039968046 -6.9895281e-14 0)
(0.039968046 -1.4424464e-13 0)
(0.039968046 -2.0455596e-13 0)
(0.039968046 -2.5960028e-13 0)
(0.039968046 -2.3004858e-13 0)
(0.039968046 -1.7977157e-13 0)
(0.039968046 -2.6963409e-14 0)
(0.039968046 5.3270149e-14 0)
(0.039968046 8.5816669e-14 0)
(0.039968046 3.6470478e-14 0)
(0.039968046 -1.9784229e-14 0)
(0.039968046 -1.0574177e-13 0)
(0.039968046 -1.8000964e-13 0)
(0.039968046 -2.5428947e-13 0)
(0.039968046 -2.7545527e-13 0)
(0.039968046 -2.5388604e-13 0)
(0.039968046 -1.2588547e-13 0)
(0.039968046 -1.4970196e-14 0)
(0.039968046 4.9433142e-14 0)
(0.039968046 8.7344711e-14 0)
(0.039968046 1.5222717e-13 0)
(0.039968046 2.0729908e-13 0)
(0.039968046 2.4328486e-13 0)
(0.039968046 2.0938499e-13 0)
(0.039968046 1.3672096e-13 0)
(0.039968046 -1.1496218e-14 0)
(0.039968046 -1.1807453e-13 0)
(0.039968046 -1.8151611e-13 0)
(0.039968046 -1.6799619e-13 0)
(0.039968046 -1.1964953e-13 0)
(0.039968046 -1.3872036e-15 0)
(0.039968046 9.3201341e-14 0)
(0.039968046 1.5186682e-13 0)
(0.039968046 1.3862901e-13 0)
(0.039968046 4.5809519e-14 0)
(0.039968046 -6.8307753e-14 0)
(0.039968046 -1.3525698e-13 0)
(0.039968046 -1.4560493e-13 0)
(0.039968046 -1.0143609e-13 0)
(0.039968046 -4.1217184e-15 0)
(0.039968046 6.3770674e-14 0)
(0.039968046 1.093202e-13 0)
(0.039968046 1.0525527e-13 0)
(0.039968046 5.0414481e-14 0)
(0.039968046 -5.0738939e-14 0)
(0.039968046 -1.2872349e-13 0)
(0.039968046 -1.9045885e-13 0)
(0.039968046 -1.8694999e-13 0)
(0.039968046 -1.5219313e-13 0)
(0.039968046 -3.7269719e-14 0)
(0.039968046 4.8458705e-14 0)
(0.039968046 1.3610165e-13 0)
(0.039968046 1.6035137e-13 0)
(0.039968046 1.5069236e-13 0)
(0.039968046 5.2481396e-14 0)
(0.039968046 -4.8438479e-14 0)
(0.039968046 -1.4995037e-13 0)
(0.039968046 -1.8596753e-13 0)
(0.039968046 -1.8241438e-13 0)
(0.039968046 -8.6514016e-14 0)
(0.039968046 3.525309e-14 0)
(0.039968046 1.2633732e-13 0)
(0.039968046 1.6465716e-13 0)
(0.039968046 1.5677099e-13 0)
(0.039968046 4.6965771e-14 0)
(0.039968046 -5.5693046e-14 0)
(0.039968046 -1.1388466e-13 0)
(0.039968046 -1.0924741e-13 0)
(0.039968046 -3.7490989e-14 0)
(0.039968046 5.4236298e-14 0)
(0.039968046 1.087603e-13 0)
(0.039968046 1.1675928e-13 0)
(0.039968046 7.0994883e-14 0)
(0.039968046 -2.9392347e-16 0)
(0.039968046 -6.1266703e-14 0)
(0.039968046 -9.6340882e-14 0)
(0.039968046 -1.1249044e-13 0)
(0.039968046 -1.5830451e-13 0)
(0.039968046 -2.5546964e-13 0)
(0.039968046 -2.9274833e-13 0)
(0.039968046 -1.8167184e-13 0)
(0.039968046 7.5050253e-15 0)
(0.36732384 0.14062829 0)
(0.29754389 0.025079383 0)
(0.1860793 0.0083694613 0)
(0.16132807 0.0041218727 0)
(0.13901859 0.0019375778 0)
(0.13040448 0.0011770234 0)
(0.12396461 0.00061113235 0)
(0.12095998 0.00037192626 0)
(0.1189454 0.00019727459 0)
(0.11794826 0.00011564935 0)
(0.11733081 6.0266265e-05 0)
(0.11702581 3.3419578e-05 0)
(0.11685066 1.6513437e-05 0)
(0.11676842 8.3930344e-06 0)
(0.1167257 3.6627448e-06 0)
(0.11670834 1.5200209e-06 0)
(0.1167012 3.9864224e-07 0)
(0.11669986 -2.8704235e-08 0)
(0.1167004 -1.9945445e-07 0)
(0.11670175 -2.1614475e-07 0)
(0.11670304 -1.9044016e-07 0)
(0.11670415 -1.4604533e-07 0)
(0.11670497 -1.0634229e-07 0)
(0.11670557 -7.3241511e-08 0)
(0.11670597 -4.9107173e-08 0)
(0.11670624 -3.1876604e-08 0)
(0.11670642 -2.0299297e-08 0)
(0.11670653 -1.2624488e-08 0)
(0.11670659 -7.7206041e-09 0)
(0.11670664 -4.6272421e-09 0)
(0.11670666 -2.728244e-09 0)
(0.11670667 -1.5774194e-09 0)
(0.11670668 -8.9445485e-10 0)
(0.11670669 -4.9490615e-10 0)
(0.11670669 -2.6628494e-10 0)
(0.11670669 -1.3877185e-10 0)
(0.11670669 -6.9469955e-11 0)
(0.11670669 -3.2970528e-11 0)
(0.11670669 -1.4112235e-11 0)
(0.11670669 -4.7453236e-12 0)
(0.11670669 -5.7417543e-13 0)
(0.11670669 8.5467283e-13 0)
(0.11670669 7.945983e-13 0)
(0.11670669 7.1872475e-13 0)
(0.11670669 8.3027181e-13 0)
(0.11670669 1.4025789e-12 0)
(0.11670669 1.5375683e-12 0)
(0.11670669 1.2997201e-12 0)
(0.11670669 8.1901185e-13 0)
(0.11670669 2.0735797e-13 0)
(0.11670669 9.352869e-14 0)
(0.11670669 -2.9227863e-13 0)
(0.11670669 -2.1860898e-13 0)
(0.11670669 -3.1962341e-13 0)
(0.11670669 -1.3584329e-13 0)
(0.11670669 -6.1425722e-14 0)
(0.11670669 1.180498e-14 0)
(0.11670669 -2.5398178e-13 0)
(0.11670669 -2.0898748e-14 0)
(0.11670669 -3.9013174e-13 0)
(0.11670669 -1.5725763e-13 0)
(0.11670669 -4.5957685e-13 0)
(0.11670669 -3.0779687e-13 0)
(0.11670669 -5.0120721e-13 0)
(0.11670669 -3.5963781e-13 0)
(0.11670669 -4.2545463e-13 0)
(0.11670669 -3.2657195e-13 0)
(0.11670669 -3.5460594e-13 0)
(0.11670669 -3.0611744e-13 0)
(0.11670669 -4.0900029e-13 0)
(0.11670669 -3.2818449e-13 0)
(0.11670669 -4.4010401e-13 0)
(0.11670669 -3.4405589e-13 0)
(0.11670669 -3.6832732e-13 0)
(0.11670669 -3.1431998e-13 0)
(0.11670669 -3.1746933e-13 0)
(0.11670669 -3.169437e-13 0)
(0.11670669 -3.1784089e-13 0)
(0.11670669 -3.3562417e-13 0)
(0.11670669 -3.1578632e-13 0)
(0.11670669 -3.3843322e-13 0)
(0.11670669 -3.1001556e-13 0)
(0.11670669 -3.5052749e-13 0)
(0.11670669 -3.1728995e-13 0)
(0.11670669 -3.6377217e-13 0)
(0.11670669 -3.1789538e-13 0)
(0.11670669 -3.6124215e-13 0)
(0.11670669 -3.0745894e-13 0)
(0.11670669 -3.5045323e-13 0)
(0.11670669 -2.9165767e-13 0)
(0.11670669 -3.3680646e-13 0)
(0.11670669 -2.9162783e-13 0)
(0.11670669 -3.5225006e-13 0)
(0.11670669 -3.164068e-13 0)
(0.11670669 -3.5334734e-13 0)
(0.11670669 -3.1034154e-13 0)
(0.11670669 -3.5431996e-13 0)
(0.11670669 -3.281303e-13 0)
(0.11670669 -3.612919e-13 0)
(0.11670669 -3.4306868e-13 0)
(0.11670669 -3.9126252e-13 0)
(0.11670669 -3.9678077e-13 0)
(0.11670669 -4.1194626e-13 0)
(0.11670669 -3.4527171e-13 0)
(0.11670669 -3.1354524e-13 0)
(0.11670669 -1.9247575e-13 0)
(0.11670669 -1.3010612e-13 0)
(0.11670669 6.0576029e-14 0)
(0.11670669 1.4420556e-13 0)
(0.11670669 3.0433193e-13 0)
(0.11670669 3.6702286e-13 0)
(0.11670669 4.628443e-13 0)
(0.11670669 5.0184047e-13 0)
(0.11670669 4.8725129e-13 0)
(0.11670669 2.3618238e-13 0)
(0.11670669 1.0725661e-13 0)
(0.11670669 -1.4009508e-13 0)
(0.11670669 -1.9468511e-13 0)
(0.11670669 -2.5676362e-13 0)
(0.11670669 -2.5095636e-13 0)
(0.11670669 -3.2790483e-13 0)
(0.11670669 -3.2075973e-13 0)
(0.11670669 -3.4634345e-13 0)
(0.11670669 -2.6967162e-13 0)
(0.11670669 -2.5073698e-13 0)
(0.11670669 -1.6542962e-13 0)
(0.11670669 -1.7113786e-13 0)
(0.11670669 -1.2462354e-13 0)
(0.11670669 -1.5408589e-13 0)
(0.11670669 -1.280469e-13 0)
(0.11670669 -1.563934e-13 0)
(0.11670669 -1.4183774e-13 0)
(0.11670669 -1.6581317e-13 0)
(0.11670669 -1.624541e-13 0)
(0.11670669 -1.8280604e-13 0)
(0.11670669 -1.9240221e-13 0)
(0.11670669 -2.1086764e-13 0)
(0.11670669 -2.2547219e-13 0)
(0.11670669 -2.45205e-13 0)
(0.11670669 -2.7203866e-13 0)
(0.11670669 -2.831226e-13 0)
(0.11670669 -3.1019793e-13 0)
(0.11670669 -3.2006083e-13 0)
(0.11670669 -3.3057932e-13 0)
(0.11670669 -3.3439536e-13 0)
(0.11670669 -3.245172e-13 0)
(0.11670669 -3.3719697e-13 0)
(0.11670669 -3.1621971e-13 0)
(0.11670669 -3.1869372e-13 0)
(0.11670669 -2.6107288e-13 0)
(0.11670669 -2.9471641e-13 0)
(0.11670669 -3.1911233e-13 0)
(0.11670669 -4.3305653e-13 0)
(0.11670669 -4.0004746e-13 0)
(0.11670669 -2.9152966e-13 0)
(0.11670669 -5.6768838e-14 0)
(0.11670669 1.0866496e-13 0)
(0.11670669 2.2897205e-13 0)
(0.11670669 1.8041729e-13 0)
(0.11670669 2.3780643e-13 0)
(0.11670669 2.685152e-13 0)
(0.11670669 3.6173022e-13 0)
(0.11670669 3.8900672e-13 0)
(0.11670669 4.2941827e-13 0)
(0.11670669 3.842968e-13 0)
(0.11670669 3.9692414e-13 0)
(0.11670669 3.5834303e-13 0)
(0.11670669 3.7423216e-13 0)
(0.11670669 3.4045196e-13 0)
(0.11670669 3.4208677e-13 0)
(0.11670669 3.2353905e-13 0)
(0.11670669 3.7039963e-13 0)
(0.11670669 4.0672942e-13 0)
(0.11670669 4.2106944e-13 0)
(0.11670669 3.1643021e-13 0)
(0.11670669 1.4647819e-13 0)
(0.11670669 -8.235792e-14 0)
(0.11670669 -1.832451e-13 0)
(0.11670669 -2.1952112e-13 0)
(0.11670669 -2.3714589e-13 0)
(0.11670669 -2.6453946e-13 0)
(0.11670669 -2.9330483e-13 0)
(0.11670669 -2.9574451e-13 0)
(0.11670669 -2.9375029e-13 0)
(0.11670669 -2.6449075e-13 0)
(0.11670669 -2.4670303e-13 0)
(0.11670669 -1.847162e-13 0)
(0.11670669 -1.6251707e-13 0)
(0.11670669 -1.5968046e-13 0)
(0.11670669 -2.5144942e-13 0)
(0.11670669 -2.9948595e-13 0)
(0.11670669 -3.0523925e-13 0)
(0.11670669 -1.204595e-13 0)
(0.11670669 6.6814737e-14 0)
(0.11670669 3.1973957e-13 0)
(0.11670669 4.1389021e-13 0)
(0.11670669 4.6242598e-13 0)
(0.11670669 4.3868136e-13 0)
(0.11670669 4.8727485e-13 0)
(0.11670669 4.8364926e-13 0)
(0.11670669 5.2876335e-13 0)
(0.11670669 4.4578796e-13 0)
(0.11670669 3.5255879e-13 0)
(0.11670669 1.1745246e-13 0)
(0.11670669 -8.8585569e-14 0)
(0.11670669 -3.0330032e-13 0)
(0.11670669 -3.7906139e-13 0)
(0.11670669 -3.745484e-13 0)
(0.11670669 -2.6009867e-13 0)
(0.11670669 -1.2178859e-13 0)
(0.11670669 8.3517933e-14 0)
(0.11670669 2.2734509e-13 0)
(0.11670669 3.9527771e-13 0)
(0.11670669 4.3885427e-13 0)
(0.11670669 4.6382177e-13 0)
(0.11670669 3.0820283e-13 0)
(0.11670669 1.2300853e-13 0)
(0.11670669 -9.9445854e-14 0)
(0.11670669 -1.570498e-13 0)
(0.11670669 -2.5835212e-13 0)
(0.11670669 -3.4112809e-13 0)
(0.11670669 -4.3677261e-13 0)
(0.11670669 -3.341752e-13 0)
(0.11670669 -2.0325692e-13 0)
(0.11670669 8.2082338e-14 0)
(0.11670669 1.4561816e-13 0)
(0.11670669 9.3388477e-14 0)
(0.11670669 -1.0122797e-13 0)
(0.11670669 -2.4946671e-13 0)
(0.11670669 -3.9286292e-13 0)
(0.11670669 -4.694375e-13 0)
(0.11670669 -5.346702e-13 0)
(0.11670669 -4.6312536e-13 0)
(0.11670669 -3.6838069e-13 0)
(0.11670669 -9.7045717e-14 0)
(0.11670669 6.3071927e-14 0)
(0.11670669 1.0634735e-13 0)
(0.11670669 1.1091141e-13 0)
(0.11670669 2.0896459e-13 0)
(0.11670669 3.1733558e-13 0)
(0.11670669 3.7371416e-13 0)
(0.11670669 2.8590693e-13 0)
(0.11670669 8.7093865e-14 0)
(0.11670669 -1.9164592e-13 0)
(0.11670669 -3.4454307e-13 0)
(0.11670669 -3.8721644e-13 0)
(0.11670669 -2.2577967e-13 0)
(0.11670669 -5.940175e-14 0)
(0.11670669 1.8450019e-13 0)
(0.11670669 3.0994793e-13 0)
(0.11670669 3.1071628e-13 0)
(0.11670669 1.7121964e-13 0)
(0.11670669 -7.0272098e-14 0)
(0.11670669 -2.826467e-13 0)
(0.11670669 -3.2111358e-13 0)
(0.11670669 -2.1675245e-13 0)
(0.11670669 -4.3969865e-14 0)
(0.11670669 1.5694394e-13 0)
(0.11670669 2.2133344e-13 0)
(0.11670669 1.9775926e-13 0)
(0.11670669 7.608444e-14 0)
(0.11670669 -9.016714e-14 0)
(0.11670669 -2.7748488e-13 0)
(0.11670669 -3.6657958e-13 0)
(0.11670669 -3.6879464e-13 0)
(0.11670669 -2.5670004e-13 0)
(0.11670669 -1.5032795e-13 0)
(0.11670669 6.224416e-14 0)
(0.11670669 1.6044228e-13 0)
(0.11670669 2.4287474e-13 0)
(0.11670669 1.9182506e-13 0)
(0.11670669 1.0434604e-13 0)
(0.11670669 -1.2094371e-13 0)
(0.11670669 -2.9136402e-13 0)
(0.11670669 -4.1204353e-13 0)
(0.11670669 -3.6059098e-13 0)
(0.11670669 -2.4185832e-13 0)
(0.11670669 -1.4062228e-14 0)
(0.11670669 2.1170052e-13 0)
(0.11670669 3.3085423e-13 0)
(0.11670669 2.6223781e-13 0)
(0.11670669 1.6121961e-13 0)
(0.11670669 -9.3030923e-14 0)
(0.11670669 -2.3895933e-13 0)
(0.11670669 -2.3472398e-13 0)
(0.11670669 -1.0667038e-13 0)
(0.11670669 1.1127551e-13 0)
(0.11670669 2.7232946e-13 0)
(0.11670669 2.8105057e-13 0)
(0.11670669 1.7667729e-13 0)
(0.11670669 -8.9083641e-15 0)
(0.11670669 -1.5243304e-13 0)
(0.11670669 -2.2145514e-13 0)
(0.11670669 -1.9486475e-13 0)
(0.11670669 -1.4525476e-13 0)
(0.11670669 -2.3456298e-13 0)
(0.11670669 -4.6218594e-13 0)
(0.11670669 -4.9642229e-13 0)
(0.11670669 -1.4675489e-13 0)
(0.11670669 1.6310301e-13 0)
(0.50390834 0.19019021 0)
(0.4384704 0.050431503 0)
(0.29767008 0.022055311 0)
(0.25944374 0.010780094 0)
(0.22598939 0.0055621347 0)
(0.21213187 0.0032307979 0)
(0.20205719 0.0017732947 0)
(0.19716897 0.0010457474 0)
(0.19394744 0.00057680523 0)
(0.19230772 0.00033134325 0)
(0.19130242 0.00017833603 0)
(0.19079327 9.7730498e-05 0)
(0.19050201 4.9924291e-05 0)
(0.1903612 2.5326132e-05 0)
(0.19028763 1.161874e-05 0)
(0.19025609 4.9673411e-06 0)
(0.1902425 1.5950369e-06 0)
(0.19023894 1.7246527e-07 0)
(0.19023899 -4.0046542e-07 0)
(0.19024063 -5.2288233e-07 0)
(0.19024241 -4.8512368e-07 0)
(0.19024402 -3.8487246e-07 0)
(0.19024524 -2.8478597e-07 0)
(0.19024615 -1.9916134e-07 0)
(0.19024677 -1.3472579e-07 0)
(0.19024719 -8.828345e-08 0)
(0.19024746 -5.6579795e-08 0)
(0.19024763 -3.5440579e-08 0)
(0.19024774 -2.1796255e-08 0)
(0.1902478 -1.314611e-08 0)
(0.19024784 -7.7928557e-09 0)
(0.19024787 -4.5322257e-09 0)
(0.19024788 -2.5850317e-09 0)
(0.19024789 -1.4408747e-09 0)
(0.19024789 -7.8234455e-10 0)
(0.19024789 -4.1182811e-10 0)
(0.1902479 -2.0855592e-10 0)
(0.1902479 -1.0013007e-10 0)
(0.1902479 -4.386061e-11 0)
(0.1902479 -1.5860449e-11 0)
(0.1902479 -3.0908713e-12 0)
(0.1902479 1.759327e-12 0)
(0.1902479 2.6032603e-12 0)
(0.1902479 2.5298974e-12 0)
(0.1902479 2.4548764e-12 0)
(0.1902479 2.957565e-12 0)
(0.1902479 2.8847466e-12 0)
(0.1902479 2.2814368e-12 0)
(0.1902479 1.3962674e-12 0)
(0.1902479 4.027275e-13 0)
(0.1902479 9.0207556e-14 0)
(0.1902479 -5.2089741e-13 0)
(0.1902479 -5.1275178e-13 0)
(0.1902479 -6.5051689e-13 0)
(0.1902479 -3.6407506e-13 0)
(0.1902479 -2.0932828e-13 0)
(0.1902479 -5.2687601e-14 0)
(0.1902479 -3.7665732e-13 0)
(0.1902479 -7.0047007e-14 0)
(0.1902479 -5.4538401e-13 0)
(0.1902479 -2.6136367e-13 0)
(0.1902479 -6.5506488e-13 0)
(0.1902479 -4.9180652e-13 0)
(0.1902479 -7.3098638e-13 0)
(0.1902479 -5.5818967e-13 0)
(0.1902479 -6.0883502e-13 0)
(0.1902479 -4.6223952e-13 0)
(0.1902479 -4.6307298e-13 0)
(0.1902479 -3.8494176e-13 0)
(0.1902479 -5.0377157e-13 0)
(0.1902479 -4.2670176e-13 0)
(0.1902479 -5.5818368e-13 0)
(0.1902479 -4.5023955e-13 0)
(0.1902479 -4.5253335e-13 0)
(0.1902479 -3.9896385e-13 0)
(0.1902479 -3.8057872e-13 0)
(0.1902479 -4.0664028e-13 0)
(0.1902479 -3.9200471e-13 0)
(0.1902479 -4.4234784e-13 0)
(0.1902479 -3.980154e-13 0)
(0.1902479 -4.4856765e-13 0)
(0.1902479 -3.9403656e-13 0)
(0.1902479 -4.6678421e-13 0)
(0.1902479 -4.1002328e-13 0)
(0.1902479 -4.8962176e-13 0)
(0.1902479 -4.1718175e-13 0)
(0.1902479 -4.900436e-13 0)
(0.1902479 -4.0770007e-13 0)
(0.1902479 -4.7840397e-13 0)
(0.1902479 -3.902098e-13 0)
(0.1902479 -4.6292354e-13 0)
(0.1902479 -3.968816e-13 0)
(0.1902479 -4.9258433e-13 0)
(0.1902479 -4.3917403e-13 0)
(0.1902479 -4.9903434e-13 0)
(0.1902479 -4.3347868e-13 0)
(0.1902479 -5.0290394e-13 0)
(0.1902479 -4.6067502e-13 0)
(0.1902479 -5.1330331e-13 0)
(0.1902479 -4.8119084e-13 0)
(0.1902479 -5.6022118e-13 0)
(0.1902479 -5.655307e-13 0)
(0.1902479 -5.8575968e-13 0)
(0.1902479 -4.7236578e-13 0)
(0.1902479 -4.2933791e-13 0)
(0.1902479 -2.7266415e-13 0)
(0.1902479 -2.1022986e-13 0)
(0.1902479 4.3898661e-14 0)
(0.1902479 1.5433368e-13 0)
(0.1902479 3.8856509e-13 0)
(0.1902479 4.8210336e-13 0)
(0.1902479 6.3060025e-13 0)
(0.1902479 6.8483281e-13 0)
(0.1902479 6.6488746e-13 0)
(0.1902479 2.6784145e-13 0)
(0.1902479 7.1612258e-14 0)
(0.1902479 -2.9098212e-13 0)
(0.1902479 -3.3069012e-13 0)
(0.1902479 -4.0553062e-13 0)
(0.1902479 -3.5522852e-13 0)
(0.1902479 -4.7062863e-13 0)
(0.1902479 -4.47384e-13 0)
(0.1902479 -4.9793279e-13 0)
(0.1902479 -3.7208555e-13 0)
(0.1902479 -3.5247373e-13 0)
(0.1902479 -2.0692255e-13 0)
(0.1902479 -2.2183425e-13 0)
(0.1902479 -1.3431692e-13 0)
(0.1902479 -1.8809822e-13 0)
(0.1902479 -1.3210213e-13 0)
(0.1902479 -1.879195e-13 0)
(0.1902479 -1.4865401e-13 0)
(0.1902479 -1.9989642e-13 0)
(0.1902479 -1.7682105e-13 0)
(0.1902479 -2.2460551e-13 0)
(0.1902479 -2.208247e-13 0)
(0.1902479 -2.6575962e-13 0)
(0.1902479 -2.6997028e-13 0)
(0.1902479 -3.1569315e-13 0)
(0.1902479 -3.3810432e-13 0)
(0.1902479 -3.7075962e-13 0)
(0.1902479 -3.9389002e-13 0)
(0.1902479 -4.2219676e-13 0)
(0.1902479 -4.2335656e-13 0)
(0.1902479 -4.3924387e-13 0)
(0.1902479 -4.136857e-13 0)
(0.1902479 -4.4047539e-13 0)
(0.1902479 -4.0200395e-13 0)
(0.1902479 -4.0984771e-13 0)
(0.1902479 -3.2068569e-13 0)
(0.1902479 -3.7407767e-13 0)
(0.1902479 -4.1153282e-13 0)
(0.1902479 -5.8150015e-13 0)
(0.1902479 -5.2204363e-13 0)
(0.1902479 -3.4679592e-13 0)
(0.1902479 3.6730994e-15 0)
(0.1902479 2.2711861e-13 0)
(0.1902479 3.71709e-13 0)
(0.1902479 2.7854515e-13 0)
(0.1902479 3.298636e-13 0)
(0.1902479 3.6914919e-13 0)
(0.1902479 4.9738139e-13 0)
(0.1902479 5.4313678e-13 0)
(0.1902479 5.9730911e-13 0)
(0.1902479 5.4294931e-13 0)
(0.1902479 5.5556096e-13 0)
(0.1902479 5.0416322e-13 0)
(0.1902479 5.1916279e-13 0)
(0.1902479 4.7325667e-13 0)
(0.1902479 4.6743089e-13 0)
(0.1902479 4.4817202e-13 0)
(0.1902479 5.1531937e-13 0)
(0.1902479 5.7534486e-13 0)
(0.1902479 5.795996e-13 0)
(0.1902479 4.1279186e-13 0)
(0.1902479 1.4890163e-13 0)
(0.1902479 -1.5778129e-13 0)
(0.1902479 -2.9158256e-13 0)
(0.1902479 -3.2163096e-13 0)
(0.1902479 -3.3161775e-13 0)
(0.1902479 -3.5826334e-13 0)
(0.1902479 -4.0452841e-13 0)
(0.1902479 -4.0481407e-13 0)
(0.1902479 -4.0945567e-13 0)
(0.1902479 -3.637423e-13 0)
(0.1902479 -3.4036305e-13 0)
(0.1902479 -2.4360565e-13 0)
(0.1902479 -2.1288335e-13 0)
(0.1902479 -2.0782647e-13 0)
(0.1902479 -3.4912334e-13 0)
(0.1902479 -4.1882162e-13 0)
(0.1902479 -4.1590466e-13 0)
(0.1902479 -1.2535222e-13 0)
(0.1902479 1.5586205e-13 0)
(0.1902479 5.1502633e-13 0)
(0.1902479 6.2957681e-13 0)
(0.1902479 6.8443356e-13 0)
(0.1902479 6.3118946e-13 0)
(0.1902479 6.9949316e-13 0)
(0.1902479 6.9898174e-13 0)
(0.1902479 7.6984455e-13 0)
(0.1902479 6.4130843e-13 0)
(0.1902479 4.8927397e-13 0)
(0.1902479 1.2373228e-13 0)
(0.1902479 -1.6141737e-13 0)
(0.1902479 -4.6810285e-13 0)
(0.1902479 -5.5262991e-13 0)
(0.1902479 -5.2718673e-13 0)
(0.1902479 -3.295736e-13 0)
(0.1902479 -1.1669155e-13 0)
(0.1902479 1.7029403e-13 0)
(0.1902479 3.5242178e-13 0)
(0.1902479 5.8318514e-13 0)
(0.1902479 6.2082326e-13 0)
(0.1902479 6.4796263e-13 0)
(0.1902479 3.9149272e-13 0)
(0.1902479 1.2908928e-13 0)
(0.1902479 -1.7034505e-13 0)
(0.1902479 -2.3502797e-13 0)
(0.1902479 -3.7340887e-13 0)
(0.1902479 -4.7789013e-13 0)
(0.1902479 -6.1739086e-13 0)
(0.1902479 -4.5055164e-13 0)
(0.1902479 -2.4393521e-13 0)
(0.1902479 1.4687636e-13 0)
(0.1902479 2.0568184e-13 0)
(0.1902479 1.0352321e-13 0)
(0.1902479 -2.2546183e-13 0)
(0.1902479 -4.4149639e-13 0)
(0.1902479 -6.4358254e-13 0)
(0.1902479 -7.1979258e-13 0)
(0.1902479 -7.8242889e-13 0)
(0.1902479 -6.5249532e-13 0)
(0.1902479 -4.8560502e-13 0)
(0.1902479 -9.1981801e-14 0)
(0.1902479 1.0474585e-13 0)
(0.1902479 1.5302907e-13 0)
(0.1902479 1.3382499e-13 0)
(0.1902479 2.6561573e-13 0)
(0.1902479 4.2616071e-13 0)
(0.1902479 5.037196e-13 0)
(0.1902479 3.6660614e-13 0)
(0.1902479 5.4994027e-14 0)
(0.1902479 -3.1511413e-13 0)
(0.1902479 -5.3230235e-13 0)
(0.1902479 -5.466796e-13 0)
(0.1902479 -2.79512e-13 0)
(0.1902479 4.0572209e-15 0)
(0.1902479 3.479896e-13 0)
(0.1902479 5.23012e-13 0)
(0.1902479 4.9420522e-13 0)
(0.1902479 2.5104609e-13 0)
(0.1902479 -1.0588218e-13 0)
(0.1902479 -4.0269424e-13 0)
(0.1902479 -4.393117e-13 0)
(0.1902479 -2.5288062e-13 0)
(0.1902479 2.2456033e-14 0)
(0.1902479 2.8671006e-13 0)
(0.1902479 3.7077069e-13 0)
(0.1902479 2.85983e-13 0)
(0.1902479 7.2640911e-14 0)
(0.1902479 -1.9099255e-13 0)
(0.1902479 -4.4648693e-13 0)
(0.1902479 -5.546436e-13 0)
(0.1902479 -5.1969735e-13 0)
(0.1902479 -3.2064764e-13 0)
(0.1902479 -1.4425813e-13 0)
(0.1902479 1.3322711e-13 0)
(0.1902479 2.58614e-13 0)
(0.1902479 3.3506901e-13 0)
(0.1902479 2.2805154e-13 0)
(0.1902479 5.8154903e-14 0)
(0.1902479 -2.8174828e-13 0)
(0.1902479 -5.1742266e-13 0)
(0.1902479 -6.6780312e-13 0)
(0.1902479 -5.5135657e-13 0)
(0.1902479 -3.424612e-13 0)
(0.1902479 3.7401268e-15 0)
(0.1902479 3.1628911e-13 0)
(0.1902479 4.7114509e-13 0)
(0.1902479 3.4535477e-13 0)
(0.1902479 1.6207869e-13 0)
(0.1902479 -1.9670794e-13 0)
(0.1902479 -3.7673641e-13 0)
(0.1902479 -3.4751198e-13 0)
(0.1902479 -1.040476e-13 0)
(0.1902479 2.1798622e-13 0)
(0.1902479 4.4514441e-13 0)
(0.1902479 4.2741624e-13 0)
(0.1902479 2.3207219e-13 0)
(0.1902479 -6.195888e-14 0)
(0.1902479 -2.5669439e-13 0)
(0.1902479 -3.5394423e-13 0)
(0.1902479 -2.7927604e-13 0)
(0.1902479 -1.8491014e-13 0)
(0.1902479 -3.0650154e-13 0)
(0.1902479 -6.485169e-13 0)
(0.1902479 -6.9324465e-13 0)
(0.1902479 -1.4722775e-13 0)
(0.1902479 2.7499051e-13 0)
(0.59346672 0.2146733 0)
(0.54593347 0.075998403 0)
(0.39702192 0.039312289 0)
(0.34953974 0.019720548 0)
(0.30792187 0.010726726 0)
(0.28963523 0.0061583719 0)
(0.27651264 0.0034761846 0)
(0.26994405 0.0020291093 0)
(0.26565503 0.001140997 0)
(0.26342423 0.00065141353 0)
(0.26206335 0.00035633883 0)
(0.26136077 0.00019487765 0)
(0.26095907 0.0001012967 0)
(0.26076048 5.1592803e-05 0)
(0.260656 2.4316638e-05 0)
(0.26060945 1.0643973e-05 0)
(0.26058866 3.7603509e-06 0)
(0.26058217 7.1133597e-07 0)
(0.26058122 -5.4284223e-07 0)
(0.26058278 -8.8433684e-07 0)
(0.2605848 -8.6458052e-07 0)
(0.26058673 -7.0550674e-07 0)
(0.26058825 -5.2966013e-07 0)
(0.26058939 -3.7479205e-07 0)
(0.26059018 -2.5545486e-07 0)
(0.26059072 -1.6857978e-07 0)
(0.26059108 -1.0860517e-07 0)
(0.2605913 -6.8387467e-08 0)
(0.26059144 -4.224515e-08 0)
(0.26059153 -2.5597248e-08 0)
(0.26059159 -1.523582e-08 0)
(0.26059162 -8.8988578e-09 0)
(0.26059163 -5.097898e-09 0)
(0.26059165 -2.8568424e-09 0)
(0.26059165 -1.5614056e-09 0)
(0.26059165 -8.2818983e-10 0)
(0.26059166 -4.2289305e-10 0)
(0.26059166 -2.0500706e-10 0)
(0.26059166 -9.1430688e-11 0)
(0.26059166 -3.4704197e-11 0)
(0.26059166 -8.4294177e-12 0)
(0.26059166 2.1552506e-12 0)
(0.26059166 5.0252238e-12 0)
(0.26059166 5.3097071e-12 0)
(0.26059166 4.8857021e-12 0)
(0.26059166 4.776998e-12 0)
(0.26059166 4.0965536e-12 0)
(0.26059166 3.0726546e-12 0)
(0.26059166 1.9398618e-12 0)
(0.26059166 6.2763373e-13 0)
(0.26059166 8.0585784e-14 0)
(0.26059166 -7.9314325e-13 0)
(0.26059166 -8.1457911e-13 0)
(0.26059166 -8.9959736e-13 0)
(0.26059166 -4.1803267e-13 0)
(0.26059166 -7.3679623e-14 0)
(0.26059166 2.4637315e-13 0)
(0.26059166 -8.7202151e-15 0)
(0.26059166 4.1257008e-13 0)
(0.26059166 -1.2387446e-13 0)
(0.26059166 1.5333594e-13 0)
(0.26059166 -3.3448938e-13 0)
(0.26059166 -2.0132865e-13 0)
(0.26059166 -4.839584e-13 0)
(0.26059166 -2.8072505e-13 0)
(0.26059166 -3.1462994e-13 0)
(0.26059166 -1.3010744e-13 0)
(0.26059166 -1.3373114e-13 0)
(0.26059166 -6.9636737e-14 0)
(0.26059166 -2.10977e-13 0)
(0.26059166 -1.0280643e-13 0)
(0.26059166 -2.5403792e-13 0)
(0.26059166 -1.4108854e-13 0)
(0.26059166 -1.5582724e-13 0)
(0.26059166 -1.1173276e-13 0)
(0.26059166 -1.0070226e-13 0)
(0.26059166 -1.3961565e-13 0)
(0.26059166 -1.3168237e-13 0)
(0.26059166 -1.9954649e-13 0)
(0.26059166 -1.5958188e-13 0)
(0.26059166 -2.2334498e-13 0)
(0.26059166 -1.630611e-13 0)
(0.26059166 -2.4220815e-13 0)
(0.26059166 -1.7161463e-13 0)
(0.26059166 -2.5688872e-13 0)
(0.26059166 -1.6730413e-13 0)