/*--------------------------------*- C++ -*----------------------------------*\
| =========                 |                                                 |
| \\      /  F ield         | OpenFOAM: The Open Source CFD Toolbox           |
|  \\    /   O peration     | Version:  2206                                  |
|   \\  /    A nd           | Website:  www.openfoam.com                      |
|    \\/     M anipulation  |                                                 |
\*---------------------------------------------------------------------------*/
FoamFile
{
    version     2.0;
    format      ascii;
    arch        "LSB;label=32;scalar=64";
    class       surfaceScalarField;
    location    "10";
    object      phi;
}
// * * * * * * * * * * * * * * * * * * * * * * * * * * * * * * * * * * * * * //

dimensions      [0 3 -1 0 0 0 0];

oriented        oriented;

internalField   nonuniform List<scalar> 
29650
(
6.0867647e-05
0.00020579914
3.2718167e-05
2.8149478e-05
2.459902e-05
8.1191632e-06
2.0417849e-05
4.1811984e-06
1.8552179e-05
1.865695e-06
1.7373702e-05
1.1784957e-06
1.6781662e-05
5.920452e-07
1.6412315e-05
3.693446e-07
1.6220821e-05
1.9148757e-07
1.6106685e-05
1.1412831e-07
1.6048258e-05
5.8423733e-08
1.6015474e-05
3.2781928e-08
1.5999542e-05
1.5931735e-08
1.5991376e-05
8.1655899e-09
1.5987889e-05
3.4872456e-09
1.598644e-05
1.4490006e-09
1.5986091e-05
3.5031641e-10
1.5986138e-05
-4.7215682e-11
1.598635e-05
-2.1047759e-10
1.5986569e-05
-2.1945276e-10
1.5986762e-05
-1.9207818e-10
1.5986908e-05
-1.4614132e-10
1.5987014e-05
-1.063388e-10
1.5987087e-05
-7.305571e-11
1.5987136e-05
-4.8976818e-11
1.5987167e-05
-3.1725084e-11
1.5987187e-05
-2.0167001e-11
1.59872e-05
-1.2498518e-11
1.5987208e-05
-7.6126591e-12
1.5987212e-05
-4.5339982e-12
1.5987215e-05
-2.6550296e-12
1.5987216e-05
-1.51997e-12
1.5987217e-05
-8.5661625e-13
1.5987218e-05
-4.6963475e-13
1.5987218e-05
-2.5139699e-13
1.5987218e-05
-1.277588e-13
1.5987218e-05
-6.3234872e-14
1.5987218e-05
-2.8008257e-14
1.5987218e-05
-1.2584157e-14
1.5987218e-05
-3.1568271e-15
1.5987218e-05
-2.7925554e-16
1.5987218e-05
1.9391406e-15
1.5987218e-05
9.8782852e-16
1.5987218e-05
2.3317382e-15
1.5987218e-05
4.149029e-15
1.5987218e-05
6.8100251e-15
1.5987218e-05
6.046057e-15
1.5987218e-05
3.5696225e-15
1.5987218e-05
8.8855924e-16
1.5987218e-05
-5.0191498e-16
1.5987218e-05
-1.3076772e-15
1.5987218e-05
-1.7249144e-15
1.5987218e-05
-1.4110123e-15
1.5987218e-05
-1.8439283e-15
1.5987218e-05
-1.5757795e-15
1.5987218e-05
-2.6377771e-15
1.5987218e-05
-3.053373e-15
1.5987218e-05
-3.5289796e-15
1.5987218e-05
-2.5578348e-15
1.5987218e-05
-1.7027835e-15
1.5987218e-05
-3.7157264e-17
1.5987218e-05
4.6928099e-16
1.5987218e-05
1.3660859e-15
1.5987218e-05
9.0255348e-16
1.5987218e-05
1.0998143e-15
1.5987218e-05
2.3801494e-16
1.5987218e-05
5.1015031e-16
1.5987218e-05
-1.050044e-16
1.5987218e-05
3.1952725e-16
1.5987218e-05
2.8254452e-16
1.5987218e-05
4.471826e-17
1.5987218e-05
-5.0768982e-16
1.5987218e-05
-1.0990508e-15
1.5987218e-05
-1.3354889e-15
1.5987218e-05
-1.91419e-15
1.5987218e-05
-2.0874444e-15
1.5987218e-05
-2.3883762e-15
1.5987218e-05
-2.3498702e-15
1.5987218e-05
-2.6239371e-15
1.5987218e-05
-2.452289e-15
1.5987218e-05
-2.7524001e-15
1.5987218e-05
-2.4032371e-15
1.5987218e-05
-2.7153849e-15
1.5987218e-05
-2.2543073e-15
1.5987218e-05
-2.5859959e-15
1.5987218e-05
-2.0624839e-15
1.5987218e-05
-2.4173314e-15
1.5987218e-05
-1.8549492e-15
1.5987218e-05
-2.2108484e-15
1.5987218e-05
-1.5998958e-15
1.5987218e-05
-1.9758654e-15
1.5987218e-05
-1.2479759e-15
1.5987218e-05
-1.7764695e-15
1.5987218e-05
-9.748072e-16
1.5987218e-05
-1.5415935e-15
1.5987218e-05
-6.9682481e-16
1.5987218e-05
-1.3325996e-15
1.5987218e-05
-5.9895627e-16
1.5987218e-05
-1.0981714e-15
1.5987218e-05
-4.377548e-17
1.5987218e-05
-3.9608966e-16
1.5987218e-05
2.0757082e-16
1.5987218e-05
-1.3978501e-15
1.5987218e-05
-2.0201352e-15
1.5987218e-05
-3.0508657e-15
1.5987218e-05
-1.2502052e-15
1.5987218e-05
5.9360467e-16
1.5987218e-05
2.8863081e-15
1.5987218e-05
3.4082343e-15
1.5987218e-05
3.5898801e-15
1.5987218e-05
2.2309851e-15
1.5987218e-05
1.759564e-15
1.5987218e-05
1.1801851e-15
1.5987218e-05
1.0059063e-15
1.5987218e-05
5.2801892e-16
1.5987218e-05
2.1312503e-16
1.5987218e-05
3.6116193e-17
1.5987218e-05
-2.2244727e-16
1.5987218e-05
-1.463058e-16
1.5987218e-05
-3.698243e-16
1.5987218e-05
-1.5078012e-16
1.5987218e-05
-4.4751908e-16
1.5987218e-05
-1.4771041e-16
1.5987218e-05
-5.4219304e-16
1.5987218e-05
-1.7108599e-16
1.5987218e-05
-6.4070756e-16
1.5987218e-05
-2.1741554e-16
1.5987218e-05
-7.457298e-16
1.5987218e-05
-2.7875027e-16
1.5987218e-05
-8.5179654e-16
1.5987218e-05
-3.4513049e-16
1.5987218e-05
-9.6484623e-16
1.5987218e-05
-4.2837231e-16
1.5987218e-05
-1.0814361e-15
1.5987218e-05
-5.023631e-16
1.5987218e-05
-1.1703746e-15
1.5987218e-05
-5.6781083e-16
1.5987218e-05
-1.2334426e-15
1.5987218e-05
-6.6489373e-16
1.5987218e-05
-1.3408443e-15
1.5987218e-05
-8.1482788e-16
1.5987218e-05
-1.4868201e-15
1.5987218e-05
-9.8518506e-16
1.5987218e-05
-1.6087062e-15
1.5987218e-05
-1.1182183e-15
1.5987218e-05
-1.642605e-15
1.5987218e-05
-1.2407775e-15
1.5987218e-05
-1.7847797e-15
1.5987218e-05
-1.3622808e-15
1.5987218e-05
-1.5686383e-15
1.5987218e-05
-9.2285665e-16
1.5987218e-05
-1.2382984e-15
1.5987218e-05
-1.6606428e-15
1.5987218e-05
-2.9743694e-15
1.5987218e-05
-3.3882985e-15
1.5987218e-05
-3.2096184e-15
1.5987218e-05
-1.1349718e-15
1.5987218e-05
2.3539252e-16
1.5987218e-05
1.2832278e-15
1.5987218e-05
1.0696641e-15
1.5987218e-05
1.2426168e-16
1.5987218e-05
-5.5588614e-16
1.5987218e-05
-9.4997663e-16
1.5987218e-05
-1.0795337e-15
1.5987218e-05
-1.2914725e-15
1.5987218e-05
-1.2639665e-15
1.5987218e-05
-1.4299157e-15
1.5987218e-05
-1.3427098e-15
1.5987218e-05
-1.5154706e-15
1.5987218e-05
-1.3549895e-15
1.5987218e-05
-1.5553858e-15
1.5987218e-05
-1.3560935e-15
1.5987218e-05
-1.5857898e-15
1.5987218e-05
-1.3505805e-15
1.5987218e-05
-1.624628e-15
1.5987218e-05
-1.3648239e-15
1.5987218e-05
-1.7400673e-15
1.5987218e-05
-1.4486085e-15
1.5987218e-05
-1.8606204e-15
1.5987218e-05
-1.5025149e-15
1.5987218e-05
-1.8666307e-15
1.5987218e-05
-1.4598441e-15
1.5987218e-05
-1.7829069e-15
1.5987218e-05
-1.154392e-15
1.5987218e-05
-1.4282386e-15
1.5987218e-05
-7.0360036e-16
1.5987218e-05
-1.1227853e-15
1.5987218e-05
-5.0551803e-16
1.5987218e-05
-9.887613e-16
1.5987218e-05
-3.1856777e-16
1.5987218e-05
-4.6892847e-16
1.5987218e-05
3.6127755e-16
1.5987218e-05
-1.0061524e-16
1.5987218e-05
-9.5145241e-17
1.5987218e-05
-1.1960474e-15
1.5987218e-05
-1.2662684e-15
1.5987218e-05
-9.3047844e-16
1.5987218e-05
1.3200315e-16
1.5987218e-05
1.0935934e-15
1.5987218e-05
1.1572292e-15
1.5987218e-05
1.3968064e-15
1.5987218e-05
1.2568694e-15
1.5987218e-05
1.3506249e-15
1.5987218e-05
6.7456687e-16
1.5987218e-05
5.94895e-16
1.5987218e-05
1.6726286e-16
1.5987218e-05
9.4831963e-16
1.5987218e-05
1.2328854e-15
1.5987218e-05
2.0247797e-15
1.5987218e-05
1.466212e-15
1.5987218e-05
8.5098614e-16
1.5987218e-05
-2.1822319e-16
1.5987218e-05
-5.5606617e-16
1.5987218e-05
-1.0613555e-15
1.5987218e-05
-1.0672629e-15
1.5987218e-05
-1.3420459e-15
1.5987218e-05
-1.2282681e-15
1.5987218e-05
-1.3979716e-15
1.5987218e-05
-1.3190554e-15
1.5987218e-05
-1.4557728e-15
1.5987218e-05
-1.4947866e-15
1.5987218e-05
-1.5945858e-15
1.5987218e-05
-1.6496089e-15
1.5987218e-05
-1.5142747e-15
1.5987218e-05
-1.4236066e-15
1.5987218e-05
-1.0973491e-15
1.5987218e-05
-1.1823417e-15
1.5987218e-05
-9.0308529e-16
1.5987218e-05
-1.013525e-15
1.5987218e-05
-5.0134944e-16
1.5987218e-05
-4.5304956e-16
1.5987218e-05
-2.5415466e-16
1.5987218e-05
-1.0658099e-15
1.5987218e-05
-1.5978429e-15
1.5987218e-05
-2.2806396e-15
1.5987218e-05
-1.9376759e-15
1.5987218e-05
-1.3525694e-15
1.5987218e-05
-4.8773755e-16
1.5987218e-05
6.0386407e-17
1.5987218e-05
1.1490339e-15
1.5987218e-05
2.2014434e-15
1.5987218e-05
3.2399672e-15
1.5987218e-05
2.8397725e-15
1.5987218e-05
1.6701019e-15
1.5987218e-05
-2.6668999e-16
1.5987218e-05
-1.5060518e-15
1.5987218e-05
-1.7593485e-15
1.5987218e-05
-8.953072e-16
1.5987218e-05
7.0419787e-16
1.5987218e-05
2.0763805e-15
1.5987218e-05
3.0211701e-15
1.5987218e-05
2.7021684e-15
1.5987218e-05
1.2127528e-15
1.5987218e-05
-7.2031077e-16
1.5987218e-05
-2.1312866e-15
1.5987218e-05
-2.7911857e-15
1.5987218e-05
-1.7238079e-15
1.5987218e-05
-3.4118497e-16
1.5987218e-05
1.2793245e-15
1.5987218e-05
1.9270802e-15
1.5987218e-05
1.8986213e-15
1.5987218e-05
9.9856392e-16
1.5987218e-05
2.3172188e-16
1.5987218e-05
-3.5535343e-16
1.5987218e-05
-5.3884297e-16
1.5987218e-05
-7.093482e-16
1.5987218e-05
-7.463104e-16
1.5987218e-05
-9.2494529e-16
1.5987218e-05
-8.7056765e-16
1.5987218e-05
-7.4216695e-16
1.5987218e-05
-5.3103896e-16
1.5987218e-05
-6.9537752e-16
1.5987218e-05
-1.2411867e-15
1.5987218e-05
-1.9769803e-15
1.5987218e-05
-2.4912856e-15
1.5987218e-05
-2.3200028e-15
1.5987218e-05
-1.3089168e-15
1.5987218e-05
-3.3447826e-16
1.5987218e-05
4.4891248e-16
1.5987218e-05
6.5748783e-16
1.5987218e-05
5.4489584e-16
1.5987218e-05
4.6489729e-16
1.5987218e-05
7.8634118e-16
1.5987218e-05
1.4639303e-15
1.5987218e-05
2.2317352e-15
1.5987218e-05
2.6510826e-15
1.5987218e-05
2.0941165e-15
1.5987218e-05
1.168808e-15
1.5987218e-05
2.2959675e-16
1.5987218e-05
-3.2135075e-16
1.5987218e-05
-5.787347e-16
1.5987218e-05
-6.3804121e-16
1.5987218e-05
-7.0265546e-16
1.5987218e-05
-9.2678173e-16
1.5987218e-05
-1.0254763e-15
1.5987218e-05
-6.3632479e-16
1.5987218e-05
-1.8254877e-16
1.5987218e-05
-8.557376e-16
1.5987218e-05
-2.4354764e-15
-2.13466e-15
0.00014027132
0.00033219462
9.2549241e-05
7.5871538e-05
7.0338072e-05
3.0330321e-05
5.9620315e-05
1.4898947e-05
5.4019643e-05
7.4663612e-06
5.0795345e-05
4.4027873e-06
4.901105e-05
2.3763307e-06
4.7964746e-05
1.4156407e-06
4.7384384e-05
7.718427e-07
4.7052233e-05
4.4627692e-07
4.6872682e-05
2.3797552e-07
4.677453e-05
1.3093521e-07
4.6724187e-05
6.6276766e-08
4.6698685e-05
3.3668264e-08
4.6686924e-05
1.5248471e-08
4.6681892e-05
6.4815981e-09
4.6680252e-05
1.9916942e-09
4.6680058e-05
1.470937e-10
4.6680445e-05
-5.9699114e-10
4.6680961e-05
-7.3604713e-10
4.6681443e-05
-6.7369482e-10
4.6681826e-05
-5.297314e-10
4.668211e-05
-3.9059713e-10
4.6682309e-05
-2.7218048e-10
4.6682444e-05
-1.8375049e-10
4.6682532e-05
-1.2009328e-10
4.6682589e-05
-7.6803935e-11
4.6682624e-05
-4.7979823e-11
4.6682646e-05
-2.9435497e-11
4.6682659e-05
-1.7696635e-11
4.6682667e-05
-1.0456914e-11
4.6682672e-05
-6.0576244e-12
4.6682674e-05
-3.4474896e-12
4.6682676e-05
-1.917042e-12
4.6682676e-05
-1.0409157e-12
4.6682677e-05
-5.4543441e-13
4.6682677e-05
-2.7597853e-13
4.6682677e-05
-1.2993943e-13
4.6682677e-05
-5.6556535e-14
4.6682677e-05
-1.8363398e-14
4.6682677e-05
-1.8668381e-15
4.6682677e-05
5.4179818e-15
4.6682677e-05
4.3969281e-15
4.6682677e-05
4.2157308e-15
4.6682677e-05
6.0204014e-15
4.6682677e-05
9.6521563e-15
4.6682677e-05
1.112303e-14
4.6682677e-05
9.4082103e-15
4.6682677e-05
7.2694467e-15
4.6682677e-05
4.6771095e-15
4.6682677e-05
3.544318e-15
4.6682677e-05
2.2282594e-15
4.6682677e-05
2.6827489e-15
4.6682677e-05
1.5274395e-15
4.6682677e-05
1.5937097e-15
4.6682677e-05
-5.5369239e-16
4.6682677e-05
-1.5834853e-15
4.6682677e-05
-3.489823e-15
4.6682677e-05
-2.540641e-15
4.6682677e-05
-2.9655808e-15
4.6682677e-05
-1.209683e-15
4.6682677e-05
-1.3577548e-15
4.6682677e-05
-2.5311296e-16
4.6682677e-05
-1.1883871e-15
4.6682677e-05
-1.0145485e-15
4.6682677e-05
-2.2295717e-15
4.6682677e-05
-1.9015588e-15
4.6682677e-05
-3.2710584e-15
4.6682677e-05
-2.1576161e-15
4.6682677e-05
-1.5134174e-15
4.6682677e-05
7.5804217e-17
4.6682677e-05
1.1119016e-16
4.6682677e-05
2.3945679e-16
4.6682677e-05
-8.1330411e-17
4.6682677e-05
-2.3800445e-16
4.6682677e-05
-5.5426927e-16
4.6682677e-05
-8.216547e-16
4.6682677e-05
-9.3439478e-16
4.6682677e-05
-1.243347e-15
4.6682677e-05
-1.1305724e-15
4.6682677e-05
-1.4435372e-15
4.6682677e-05
-1.0447778e-15
4.6682677e-05
-1.3757495e-15
4.6682677e-05
-8.0266965e-16
4.6682677e-05
-1.1880307e-15
4.6682677e-05
-5.0248254e-16
4.6682677e-05
-9.2482383e-16
4.6682677e-05
-2.2159323e-16
4.6682677e-05
-6.2081413e-16
4.6682677e-05
7.2663344e-17
4.6682677e-05
-2.6601177e-16
4.6682677e-05
7.9495643e-16
4.6682677e-05
3.1172625e-18
4.6682677e-05
1.2513669e-15
4.6682677e-05
2.1284781e-16
4.6682677e-05
1.6435222e-15
4.6682677e-05
6.4584257e-16
4.6682677e-05
1.7146462e-15
4.6682677e-05
7.9902861e-16
4.6682677e-05
2.1773409e-15
4.6682677e-05
1.6625331e-15
4.6682677e-05
3.0508894e-15
4.6682677e-05
1.4031428e-15
4.6682677e-05
4.9047307e-16
4.6682677e-05
-2.5675015e-15
4.6682677e-05
-2.1634024e-15
4.6682677e-05
-1.1261012e-15
4.6682677e-05
1.1711502e-15
4.6682677e-05
2.6387291e-15
4.6682677e-05
4.0652531e-15
4.6682677e-05
3.6911721e-15
4.6682677e-05
4.0912534e-15
4.6682677e-05
4.1450636e-15
4.6682677e-05
4.1559536e-15
4.6682677e-05
3.6891629e-15
4.6682677e-05
3.2451957e-15
4.6682677e-05
2.9772197e-15
4.6682677e-05
2.6397885e-15
4.6682677e-05
2.7504873e-15
4.6682677e-05
2.4734985e-15
4.6682677e-05
2.7556315e-15
4.6682677e-05
2.3564138e-15
4.6682677e-05
2.7149208e-15
4.6682677e-05
2.1689141e-15
4.6682677e-05
2.6205304e-15
4.6682677e-05
1.9669465e-15
4.6682677e-05
2.4862265e-15
4.6682677e-05
1.7559883e-15
4.6682677e-05
2.3377718e-15
4.6682677e-05
1.5434148e-15
4.6682677e-05
2.1841688e-15
4.6682677e-05
1.3281103e-15
4.6682677e-05
2.0114705e-15
4.6682677e-05
1.1085045e-15
4.6682677e-05
1.8549277e-15
4.6682677e-05
9.1452101e-16
4.6682677e-05
1.7004285e-15
4.6682677e-05
7.243176e-16
4.6682677e-05
1.5132457e-15
4.6682677e-05
4.544729e-16
4.6682677e-05
1.2517293e-15
4.6682677e-05
1.4059137e-16
4.6682677e-05
9.7219348e-16
4.6682677e-05
-3.1786757e-18
4.6682677e-05
6.7572202e-16
4.6682677e-05
-6.2218348e-17
4.6682677e-05
4.5287298e-16
4.6682677e-05
-2.1695729e-16
4.6682677e-05
1.9421491e-16
4.6682677e-05
-5.503635e-17
4.6682677e-05
8.8811699e-16
4.6682677e-05
7.5726829e-16
4.6682677e-05
4.2582638e-16
4.6682677e-05
-1.0638008e-15
4.6682677e-05
-2.5441881e-15
4.6682677e-05
-3.7081048e-15
4.6682677e-05
-2.6001255e-15
4.6682677e-05
-1.4107654e-15
4.6682677e-05
2.782614e-16
4.6682677e-05
7.6375308e-16
4.6682677e-05
7.3053779e-16
4.6682677e-05
5.9676175e-16
4.6682677e-05
5.0104261e-16
4.6682677e-05
5.5579077e-16
4.6682677e-05
3.8233905e-16
4.6682677e-05
4.4223055e-16
4.6682677e-05
1.6841805e-16
4.6682677e-05
2.8234275e-16
4.6682677e-05
3.5663117e-17
4.6682677e-05
2.4796202e-16
4.6682677e-05
-1.6021732e-17
4.6682677e-05
2.3633788e-16
4.6682677e-05
-7.2096829e-17
4.6682677e-05
2.1135475e-16
4.6682677e-05
-1.5288334e-16
4.6682677e-05
1.5884893e-16
4.6682677e-05
-3.3285156e-16
4.6682677e-05
6.237446e-18
4.6682677e-05
-5.4728907e-16
4.6682677e-05
-4.2632493e-17
4.6682677e-05
-5.1335858e-16
4.6682677e-05
6.6804038e-17
4.6682677e-05
-3.5546804e-16
4.6682677e-05
4.9874657e-16
4.6682677e-05
1.9115526e-16
4.6682677e-05
1.3190005e-15
4.6682677e-05
7.0661442e-16
4.6682677e-05
1.848749e-15
4.6682677e-05
1.1525203e-15
4.6682677e-05
2.0778703e-15
4.6682677e-05
1.7528543e-15
4.6682677e-05
3.0145731e-15
4.6682677e-05
2.7437385e-15
4.6682677e-05
3.0659771e-15
4.6682677e-05
1.4658182e-15
4.6682677e-05
6.1207444e-16
4.6682677e-05
-4.6712642e-16
4.6682677e-05
-3.6042911e-16
4.6682677e-05
-3.0395969e-16
4.6682677e-05
-4.9692061e-16
4.6682677e-05
-5.8914072e-16
4.6682677e-05
-9.4112764e-16
4.6682677e-05
-7.8854757e-16
4.6682677e-05
-1.6015634e-15
4.6682677e-05
-1.7795617e-15
4.6682677e-05
-2.5928343e-15
4.6682677e-05
-1.7987083e-15
4.6682677e-05
-1.4663832e-15
4.6682677e-05
3.9136098e-16
4.6682677e-05
8.5803721e-16
4.6682677e-05
1.5607569e-15
4.6682677e-05
1.0265382e-15
4.6682677e-05
1.2229494e-15
4.6682677e-05
7.618083e-16
4.6682677e-05
8.0900806e-16
4.6682677e-05
4.8903036e-16
4.6682677e-05
7.0268627e-16
4.6682677e-05
4.0724469e-16
4.6682677e-05
4.8674982e-16
4.6682677e-05
3.042312e-16
4.6682677e-05
2.3599598e-16
4.6682677e-05
1.3059785e-16
4.6682677e-05
1.1108429e-16
4.6682677e-05
2.7518213e-16
4.6682677e-05
4.2690002e-16
4.6682677e-05
9.3646158e-16
4.6682677e-05
7.9301788e-16
4.6682677e-05
1.35741e-15
4.6682677e-05
1.0028436e-15
4.6682677e-05
1.658222e-15
4.6682677e-05
1.6452957e-15
4.6682677e-05
2.3663579e-15
4.6682677e-05
1.681261e-15
4.6682677e-05
1.0094634e-15
4.6682677e-05
-7.9906165e-16
4.6682677e-05
-1.3449661e-15
4.6682677e-05
-1.9802555e-15
4.6682677e-05
-1.8706564e-15
4.6682677e-05
-2.0312055e-15
4.6682677e-05
-9.3129661e-16
4.6682677e-05
-1.4803371e-17
4.6682677e-05
1.9995834e-15
4.6682677e-05
3.2918593e-15
4.6682677e-05
3.2111494e-15
4.6682677e-05
1.746557e-15
4.6682677e-05
1.7685994e-16
4.6682677e-05
-1.3689935e-15
4.6682677e-05
-1.721928e-15
4.6682677e-05
-9.5019636e-16
4.6682677e-05
1.8897475e-16
4.6682677e-05
1.7546519e-15
4.6682677e-05
2.5099722e-15
4.6682677e-05
2.3676348e-15
4.6682677e-05
8.3676421e-16
4.6682677e-05
-7.2396169e-16
4.6682677e-05
-2.5269008e-15
4.6682677e-05
-2.7575057e-15
4.6682677e-05
-2.0581047e-15
4.6682677e-05
-6.6194899e-16
4.6682677e-05
5.6829579e-16
4.6682677e-05
1.6321135e-15
4.6682677e-05
1.6852931e-15
4.6682677e-05
1.7269932e-15
4.6682677e-05
1.4252509e-15
4.6682677e-05
1.4595742e-15
4.6682677e-05
1.3196479e-15
4.6682677e-05
1.4357896e-15
4.6682677e-05
1.2083517e-15
4.6682677e-05
1.1852287e-15
4.6682677e-05
1.2341605e-15
4.6682677e-05
1.5367511e-15
4.6682677e-05
1.6804084e-15
4.6682677e-05
1.4880931e-15
4.6682677e-05
5.2281553e-16
4.6682677e-05
-9.2283938e-16
4.6682677e-05
-1.8309813e-15
4.6682677e-05
-2.069463e-15
4.6682677e-05
-1.7013681e-15
4.6682677e-05
-1.2489932e-15
4.6682677e-05
-1.2305934e-15
4.6682677e-05
-1.4364599e-15
4.6682677e-05
-1.637308e-15
4.6682677e-05
-1.6755322e-15
4.6682677e-05
-1.0878233e-15
4.6682677e-05
2.5390049e-16
4.6682677e-05
1.5884261e-15
4.6682677e-05
2.3470445e-15
4.6682677e-05
2.3084304e-15
4.6682677e-05
1.9528287e-15
4.6682677e-05
1.5412249e-15
4.6682677e-05
1.4989822e-15
4.6682677e-05
1.4723915e-15
4.6682677e-05
1.4652043e-15
4.6682677e-05
1.2765943e-15
4.6682677e-05
9.6486879e-16
4.6682677e-05
1.1764817e-15
4.6682677e-05
1.9802647e-15
4.6682677e-05
1.9407629e-15
4.6682677e-05
-5.4221727e-19
-1.4528587e-15
0.00019469214
0.00040416927
0.00014360962
0.00012695408
0.00011230147
6.1638482e-05
9.6619295e-05
3.0581145e-05
8.7762221e-05
1.6323449e-05
8.2755407e-05
9.4096151e-06
7.9871702e-05
5.2600463e-06
7.8206034e-05
3.0813166e-06
7.7256668e-05
1.7212112e-06
7.6718195e-05
9.8475e-07
7.6420462e-05
5.3570555e-07
7.6258218e-05
2.9317721e-07
7.6172993e-05
1.5150045e-07
7.61296e-05
7.7060365e-08
7.6108851e-05
3.5996626e-08
7.6099695e-05
1.5636667e-08
7.6096324e-05
5.3621751e-09
7.6095587e-05
8.8370508e-10
7.6095937e-05
-9.4616014e-10
7.6096611e-05
-1.4104203e-09
7.609729e-05
-1.3527216e-09
7.6097854e-05
-1.0929195e-09
7.609828e-05
-8.1655859e-10
7.6098584e-05
-5.7561068e-10
7.6098791e-05
-3.9140548e-10
7.6098929e-05
-2.5769769e-10
7.6099018e-05
-1.6570848e-10
7.6099074e-05
-1.0413503e-10
7.6099108e-05
-6.4204293e-11
7.609913e-05
-3.8816131e-11
7.6099142e-05
-2.3053376e-11
7.609915e-05
-1.3427436e-11
7.6099154e-05
-7.6759699e-12
7.6099156e-05
-4.2891735e-12
7.6099157e-05
-2.3397094e-12
7.6099158e-05
-1.2342299e-12
7.6099158e-05
-6.2923867e-13
7.6099159e-05
-3.0151579e-13
7.6099159e-05
-1.3573626e-13
7.6099159e-05
-5.0254904e-14
7.6099159e-05
-1.1722016e-14
7.6099159e-05
6.1174994e-15
7.6099159e-05
8.9827295e-15
7.6099159e-05
1.1474122e-14
7.6099159e-05
1.384141e-14
7.6099159e-05
1.5895949e-14
7.6099159e-05
1.3595519e-14
7.6099159e-05
9.4135562e-15
7.6099159e-05
4.9045902e-15
7.6099159e-05
2.1891329e-15
7.6099159e-05
9.9627304e-16
7.6099159e-05
-6.1390971e-17
7.6099159e-05
8.187838e-16
7.6099159e-05
-4.5104452e-16
7.6099159e-05
2.4289768e-16
7.6099159e-05
-2.1345442e-15
7.6099159e-05
-2.6984346e-15
7.6099159e-05
-4.166001e-15
7.6099159e-05
-2.73102e-15
7.6099159e-05
-2.2009524e-15
7.6099159e-05
3.4224824e-16
7.6099159e-05
6.5151027e-16
7.6099159e-05
2.4434806e-15
7.6099159e-05
1.2284838e-15
7.6099159e-05
2.0254177e-15
7.6099159e-05
9.8869342e-17
7.6099159e-05
5.6050426e-16
7.6099159e-05
-8.6400955e-16
7.6099159e-05
-2.9302002e-16
7.6099159e-05
-7.3256075e-16
7.6099159e-05
-7.0439741e-16
7.6099159e-05
-1.3215136e-15
7.6099159e-05
-2.2707717e-15
7.6099159e-05
-2.6978144e-15
7.6099159e-05
-3.2296972e-15
7.6099159e-05
-3.4750525e-15
7.6099159e-05
-3.9200673e-15
7.6099159e-05
-3.8316721e-15
7.6099159e-05
-4.3847317e-15
7.6099159e-05
-3.988001e-15
7.6099159e-05
-4.6147459e-15
7.6099159e-05
-3.9044898e-15
7.6099159e-05
-4.5534009e-15
7.6099159e-05
-3.561127e-15
7.6099159e-05
-4.2827517e-15
7.6099159e-05
-3.081111e-15
7.6099159e-05
-3.929249e-15
7.6099159e-05
-2.5577124e-15
7.6099159e-05
-3.4971092e-15
7.6099159e-05
-1.9684865e-15
7.6099159e-05
-2.9507543e-15
7.6099159e-05
-1.2957684e-15
7.6099159e-05
-2.4534116e-15
7.6099159e-05
-7.6032486e-16
7.6099159e-05
-1.938051e-15
7.6099159e-05
-2.9144337e-16
7.6099159e-05
-1.5991186e-15
7.6099159e-05
-1.5470996e-16
7.6099159e-05
-1.2650248e-15
7.6099159e-05
6.0801402e-16
7.6099159e-05
-2.1870408e-16
7.6099159e-05
1.0199713e-15
7.6099159e-05
-1.7061934e-15
7.6099159e-05
-2.2985712e-15
7.6099159e-05
-4.2988e-15
7.6099159e-05
-1.9291969e-15
7.6099159e-05
1.9777835e-16
7.6099159e-05
3.6437096e-15
7.6099159e-05
4.1881063e-15
7.6099159e-05
4.9614989e-15
7.6099159e-05
3.3500417e-15
7.6099159e-05
3.2849381e-15
7.6099159e-05
2.7568914e-15
7.6099159e-05
2.7892769e-15
7.6099159e-05
2.1582476e-15
7.6099159e-05
1.7374996e-15
7.6099159e-05
1.5358027e-15
7.6099159e-05
1.0998572e-15
7.6099159e-05
1.2891433e-15
7.6099159e-05
8.5278783e-16
7.6099159e-05
1.2799513e-15
7.6099159e-05
6.8290177e-16
7.6099159e-05
1.2529461e-15
7.6099159e-05
4.6329124e-16
7.6099159e-05
1.1680037e-15
7.6099159e-05
2.2662313e-16
7.6099159e-05
1.0406411e-15
7.6099159e-05
-2.0347541e-17
7.6099159e-05
8.9598968e-16
7.6099159e-05
-2.6775725e-16
7.6099159e-05
7.3719596e-16
7.6099159e-05
-5.2134533e-16
7.6099159e-05
5.4902519e-16
7.6099159e-05
-7.7429297e-16
7.6099159e-05
3.5930586e-16
7.6099159e-05
-9.9796611e-16
7.6099159e-05
1.6890471e-16
7.6099159e-05
-1.1901088e-15
7.6099159e-05
-7.1126567e-17
7.6099159e-05
-1.4440053e-15
7.6099159e-05
-4.0179701e-16
7.6099159e-05
-1.7546079e-15
7.6099159e-05
-7.686407e-16
7.6099159e-05
-2.0620074e-15
7.6099159e-05
-1.0760933e-15
7.6099159e-05
-2.2131108e-15
7.6099159e-05
-1.3306367e-15
7.6099159e-05
-2.4484713e-15
7.6099159e-05
-1.5405754e-15
7.6099159e-05
-2.1530367e-15
7.6099159e-05
-9.3657794e-16
7.6099159e-05
-1.6215708e-15
7.6099159e-05
-1.9290631e-15
7.6099159e-05
-4.0398349e-15
7.6099159e-05
-4.518831e-15
7.6099159e-05
-4.6005595e-15
7.6099159e-05
-1.7890372e-15
7.6099159e-05
-1.1130993e-16
7.6099159e-05
1.3721334e-15
7.6099159e-05
1.0858749e-15
7.6099159e-05
-3.8707126e-17
7.6099159e-05
-9.247446e-16
7.6099159e-05
-1.5833828e-15
7.6099159e-05
-1.6200414e-15
7.6099159e-05
-1.9625561e-15
7.6099159e-05
-1.7789196e-15
7.6099159e-05
-2.1354477e-15
7.6099159e-05
-1.8509848e-15
7.6099159e-05
-2.2675403e-15
7.6099159e-05
-1.8472946e-15
7.6099159e-05
-2.3444908e-15
7.6099159e-05
-1.8441336e-15
7.6099159e-05
-2.4350481e-15
7.6099159e-05
-1.8685878e-15
7.6099159e-05
-2.5649788e-15
7.6099159e-05
-1.9504502e-15
7.6099159e-05
-2.8187137e-15
7.6099159e-05
-2.1468678e-15
7.6099159e-05
-3.091359e-15
7.6099159e-05
-2.2155611e-15
7.6099159e-05
-3.0186443e-15
7.6099159e-05
-1.9920404e-15
7.6099159e-05
-2.7554615e-15
7.6099159e-05
-1.3472598e-15
7.6099159e-05
-1.9928148e-15
7.6099159e-05
-4.6146721e-16
7.6099159e-05
-1.2570855e-15
7.6099159e-05
7.1126938e-17
7.6099159e-05
-8.386335e-16
7.6099159e-05
4.6750743e-16
7.6099159e-05
-7.7503523e-18
7.6099159e-05
1.4218526e-15
7.6099159e-05
4.6967679e-16
7.6099159e-05
6.0716767e-16
7.6099159e-05
-1.3067573e-15
7.6099159e-05
-1.4576163e-15
7.6099159e-05
-1.3658965e-15
7.6099159e-05
-1.8236058e-16
7.6099159e-05
9.4017322e-16
7.6099159e-05
1.1850219e-15
7.6099159e-05
1.4720617e-15
7.6099159e-05
9.6664834e-16
7.6099159e-05
1.2406162e-15
7.6099159e-05
6.9087981e-17
7.6099159e-05
2.3090744e-16
7.6099159e-05
-5.739483e-16
7.6099159e-05
7.9676199e-16
7.6099159e-05
1.08679e-15
7.6099159e-05
2.4679212e-15
7.6099159e-05
1.691481e-15
7.6099159e-05
1.3235138e-15
7.6099159e-05
-1.7141974e-16
7.6099159e-05
-3.7126901e-16
7.6099159e-05
-1.1942938e-15
7.6099159e-05
-9.2866492e-16
7.6099159e-05
-1.416935e-15
7.6099159e-05
-1.074514e-15
7.6099159e-05
-1.3789135e-15
7.6099159e-05
-1.1462491e-15
7.6099159e-05
-1.3848049e-15
7.6099159e-05
-1.3892614e-15
7.6099159e-05
-1.54448e-15
7.6099159e-05
-1.6615399e-15
7.6099159e-05
-1.3819676e-15
7.6099159e-05
-1.2971048e-15
7.6099159e-05
-7.1068242e-16
7.6099159e-05
-9.840283e-16
7.6099159e-05
-5.1629712e-16
7.6099159e-05
-8.6778227e-16
7.6099159e-05
-2.7006876e-17
7.6099159e-05
-8.5843892e-17
7.6099159e-05
3.698038e-16
7.6099159e-05
-9.8192379e-16
7.6099159e-05
-1.6195401e-15
7.6099159e-05
-2.8190321e-15
7.6099159e-05
-2.3562771e-15
7.6099159e-05
-1.8949839e-15
7.6099159e-05
-8.407296e-16
7.6099159e-05
-2.083948e-16
7.6099159e-05
1.2815925e-15
7.6099159e-05
2.8046212e-15
7.6099159e-05
4.4271699e-15
7.6099159e-05
3.9684234e-15
7.6099159e-05
2.6822309e-15
7.6099159e-05
8.43671e-18
7.6099159e-05
-1.7238396e-15
7.6099159e-05
-2.2616476e-15
7.6099159e-05
-1.452877e-15
7.6099159e-05
7.2541053e-16
7.6099159e-05
2.4431774e-15
7.6099159e-05
3.856669e-15
7.6099159e-05
3.4482701e-15
7.6099159e-05
1.7333594e-15
7.6099159e-05
-8.6176368e-16
7.6099159e-05
-2.7200087e-15
7.6099159e-05
-3.833306e-15
7.6099159e-05
-2.5078238e-15
7.6099159e-05
-8.7496177e-16
7.6099159e-05
1.4176301e-15
7.6099159e-05
2.3228151e-15
7.6099159e-05
2.4961243e-15
7.6099159e-05
1.4766807e-15
7.6099159e-05
6.5694349e-16
7.6099159e-05
-1.0173325e-16
7.6099159e-05
-1.9511376e-16
7.6099159e-05
-4.4745619e-16
7.6099159e-05
-4.2859545e-16
7.6099159e-05
-7.2266998e-16
7.6099159e-05
-5.945049e-16
7.6099159e-05
-4.0274761e-16
7.6099159e-05
-9.8081729e-18
7.6099159e-05
-2.0802288e-16
7.6099159e-05
-1.0195855e-15
7.6099159e-05
-2.1114848e-15
7.6099159e-05
-2.9566364e-15
7.6099159e-05
-2.8895668e-15
7.6099159e-05
-1.7915456e-15
7.6099159e-05
-6.733609e-16
7.6099159e-05
2.5454797e-16
7.6099159e-05
4.5259155e-16
7.6099159e-05
2.2736385e-16
7.6099159e-05
5.5394222e-17
7.6099159e-05
5.3894438e-16
7.6099159e-05
1.4987512e-15
7.6099159e-05
2.7049036e-15
7.6099159e-05
3.3713536e-15
7.6099159e-05
2.8174566e-15
7.6099159e-05
1.8575758e-15
7.6099159e-05
7.0822158e-16
7.6099159e-05
8.5264727e-17
7.6099159e-05
-2.2849258e-16
7.6099159e-05
-2.8282987e-16
7.6099159e-05
-3.7050424e-16
7.6099159e-05
-7.0357918e-16
7.6099159e-05
-8.4772523e-16
7.6099159e-05
-2.6590306e-16
7.6099159e-05
4.433645e-16
7.6099159e-05
-5.1246352e-16
7.6099159e-05
-2.9766964e-15
-2.803249e-15
0.00023312986
0.00043770621
0.00018548526
0.00017459868
0.00015018421
9.6939551e-05
0.0001310242
4.9741169e-05
0.00011965162
2.7696037e-05
0.0001131446
1.5916644e-05
0.00010931814
9.0865133e-06
0.00010710183
5.2976311e-06
0.0001058215
3.0015506e-06
0.00010509347
1.7127785e-06
0.00010468612
9.430503e-07
0.00010446306
5.1623467e-07
0.00010434425
2.7031388e-07
0.00010428311
1.3819515e-07
0.00010425319
6.5915457e-08
0.00010423959
2.9235402e-08
0.0001042342
1.0753161e-08
0.00010423268
2.4052653e-09
0.00010423281
-1.0804705e-09
0.00010423352
-2.1162175e-09
0.00010423431
-2.1443387e-09
0.000104235
-1.7797298e-09
0.00010423553
-1.3484394e-09
0.00010423592
-9.6073426e-10
0.00010423618
-6.5792076e-10
0.00010423636
-4.3594301e-10
0.00010423648
-2.8172106e-10
0.00010423655
-1.7790263e-10
0.0001042366
-1.1015621e-10
0.00010423662
-6.689293e-11
0.00010423664
-3.9893706e-11
0.00010423665
-2.33416e-11
0.00010423666
-1.3400704e-11
0.00010423666
-7.5261795e-12
0.00010423666
-4.1273378e-12
0.00010423666
-2.1944691e-12
0.00010423666
-1.1272963e-12
0.00010423666
-5.4901351e-13
0.00010423666
-2.5136079e-13
0.00010423666
-9.9282511e-14
0.00010423666
-2.827562e-14
0.00010423666
4.3815372e-15
0.00010423666
1.3494495e-14
0.00010423666
1.8480873e-14
0.00010423666
2.1389368e-14
0.00010423666
2.1949082e-14
0.00010423666
1.7316103e-14
0.00010423666
9.7904268e-15
0.00010423666
4.2535745e-15
0.00010423666
3.4356214e-16
0.00010423666
-4.4517423e-16
0.00010423666
-1.5769248e-15
0.00010423666
1.3076689e-16
0.00010423666
-1.2279553e-15
0.00010423666
1.1739777e-16
0.00010423666
-2.5214551e-15
0.00010423666
-2.8222901e-15
0.00010423666
-4.6202556e-15
0.00010423666
-2.43602e-15
0.00010423666
-1.9029121e-15
0.00010423666
1.688793e-15
0.00010423666
2.2027772e-15
0.00010423666
4.7649791e-15
0.00010423666
3.5982064e-15
0.00010423666
4.8211645e-15
0.00010423666
2.7891965e-15
0.00010423666
3.2705996e-15
0.00010423666
1.5173379e-15
0.00010423666
1.5047927e-15
0.00010423666
-2.200992e-16
0.00010423666
-6.6703151e-16
0.00010423666
-2.6858885e-15
0.00010423666
-3.842185e-15
0.00010423666
-4.8981511e-15
0.00010423666
-5.3364401e-15
0.00010423666
-5.7937893e-15
0.00010423666
-6.2625108e-15
0.00010423666
-6.2765322e-15
0.00010423666
-6.7457404e-15
0.00010423666
-6.4817274e-15
0.00010423666
-7.0187925e-15
0.00010423666
-6.4085191e-15
0.00010423666
-6.985116e-15
0.00010423666
-5.9948287e-15
0.00010423666
-6.6483047e-15
0.00010423666
-5.3635773e-15
0.00010423666
-6.1716364e-15
0.00010423666
-4.7004208e-15
0.00010423666
-5.5835496e-15
0.00010423666
-3.9183178e-15
0.00010423666
-4.8387092e-15
0.00010423666
-3.1087096e-15
0.00010423666
-4.1863724e-15
0.00010423666
-2.4145873e-15
0.00010423666
-3.5325216e-15
0.00010423666
-1.8490866e-15
0.00010423666
-3.1614057e-15
0.00010423666
-1.6547267e-15
0.00010423666
-2.7239292e-15
0.00010423666
-7.9344256e-16
0.00010423666
-1.6871575e-15
0.00010423666
-7.640941e-16
0.00010423666
-3.8231966e-15
0.00010423666
-4.2528035e-15
0.00010423666
-5.6615972e-15
0.00010423666
-2.0012779e-15
0.00010423666
1.1560928e-15
0.00010423666
5.0128074e-15
0.00010423666
5.3658532e-15
0.00010423666
5.3194726e-15
0.00010423666
3.1566469e-15
0.00010423666
2.5075949e-15
0.00010423666
1.8176749e-15
0.00010423666
1.7049013e-15
0.00010423666
1.1405597e-15
0.00010423666
7.3159065e-16
0.00010423666
5.4909961e-16
0.00010423666
9.4340762e-17
0.00010423666
2.8444164e-16
0.00010423666
-1.8314358e-16
0.00010423666
2.5778238e-16
0.00010423666
-3.6812398e-16
0.00010423666
2.2228515e-16
0.00010423666
-5.997958e-16