/*--------------------------------*- C++ -*----------------------------------*\
| =========                 |                                                 |
| \\      /  F ield         | OpenFOAM: The Open Source CFD Toolbox           |
|  \\    /   O peration     | Version:  2206                                  |
|   \\  /    A nd           | Website:  www.openfoam.com                      |
|    \\/     M anipulation  |                                                 |
\*---------------------------------------------------------------------------*/
FoamFile
{
    version     2.0;
    format      ascii;
    arch        "LSB;label=32;scalar=64";
    class       volVectorField;
    location    "10";
    object      U;
}
// * * * * * * * * * * * * * * * * * * * * * * * * * * * * * * * * * * * * * //

dimensions      [0 1 -1 0 0 0 0];

internalField   nonuniform List<vector> 
15000
(
(0.15962853 0.053997675 0)
(0.11557193 0.0064916394 0)
(0.064251357 0.0014144221 0)
(0.055918598 0.00074960488 0)
(0.047595819 0.00028827291 0)
(0.044708802 0.00019884702 0)
(0.042412498 9.0524256e-05 0)
(0.04140664 6.0129294e-05 0)
(0.040707477 2.8980315e-05 0)
(0.04037699 1.8020555e-05 0)
(0.040167797 8.6629188e-06 0)
(0.040068659 4.9962625e-06 0)
(0.040011053 2.2678451e-06 0)
(0.039985308 1.173831e-06 0)
(0.039971973 4.4664562e-07 0)
(0.039967049 1.7388608e-07 0)
(0.03996518 1.4162607e-08 0)
(0.039965127 -3.0086172e-08 0)
(0.039965544 -4.8551927e-08 0)
(0.039966152 -4.3151283e-08 0)
(0.03996668 -3.5696279e-08 0)
(0.039967111 -2.6028027e-08 0)
(0.039967422 -1.8558427e-08 0)
(0.039967642 -1.2485197e-08 0)
(0.03996779 -8.2699827e-09 0)
(0.039967887 -5.2822985e-09 0)
(0.039967949 -3.3250915e-09 0)
(0.039967988 -2.0364014e-09 0)
(0.039968012 -1.2280666e-09 0)
(0.039968026 -7.2246563e-10 0)
(0.039968035 -4.1834175e-10 0)
(0.03996804 -2.361247e-10 0)
(0.039968042 -1.3149072e-10 0)
(0.039968044 -7.0855612e-11 0)
(0.039968045 -3.7284013e-11 0)
(0.039968045 -1.8285403e-11 0)
(0.039968045 -8.8179563e-12 0)
(0.039968046 -3.5431501e-12 0)
(0.039968046 -1.5206573e-12 0)
(0.039968046 3.7768783e-15 0)
(0.039968046 2.257536e-13 0)
(0.039968046 5.8542653e-13 0)
(0.039968046 2.5420327e-13 0)
(0.039968046 5.2643393e-13 0)
(0.039968046 8.5120142e-13 0)
(0.039968046 1.5573227e-12 0)
(0.039968046 1.4716877e-12 0)
(0.039968046 9.3698144e-13 0)
(0.039968046 3.5979774e-13 0)
(0.039968046 3.3208189e-14 0)
(0.039968046 -1.4084757e-13 0)
(0.039968046 -2.607967e-13 0)
(0.039968046 -1.8006307e-13 0)
(0.039968046 -3.1409915e-13 0)
(0.039968046 -2.5720225e-13 0)
(0.039968046 -5.6685444e-13 0)
(0.039968046 -6.7790448e-13 0)
(0.039968046 -8.3408107e-13 0)
(0.039968046 -5.7281947e-13 0)
(0.039968046 -4.0664509e-13 0)
(0.039968046 -7.6406699e-15 0)
(0.039968046 5.8772272e-14 0)
(0.039968046 2.8095366e-13 0)
(0.039968046 1.3793308e-13 0)
(0.039968046 1.9249643e-13 0)
(0.039968046 -4.0704082e-14 0)
(0.039968046 2.9834105e-14 0)
(0.039968046 -1.5738805e-13 0)
(0.039968046 -4.3074968e-14 0)
(0.039968046 -3.713983e-14 0)
(0.039968046 -3.2421317e-14 0)
(0.039968046 -1.4603542e-13 0)
(0.039968046 -2.2201557e-13 0)
(0.039968046 -2.6261614e-13 0)
(0.039968046 -4.0964026e-13 0)
(0.039968046 -4.5103299e-13 0)
(0.039968046 -5.2630929e-13 0)
(0.039968046 -5.1735134e-13 0)
(0.039968046 -5.8413645e-13 0)
(0.039968046 -5.4419028e-13 0)
(0.039968046 -6.1661882e-13 0)
(0.039968046 -5.332258e-13 0)
(0.039968046 -6.0790314e-13 0)
(0.039968046 -4.909971e-13 0)
(0.039968046 -5.7655624e-13 0)
(0.039968046 -4.3863443e-13 0)
(0.039968046 -5.3664117e-13 0)
(0.039968046 -3.8539811e-13 0)
(0.039968046 -4.8999755e-13 0)
(0.039968046 -3.2386071e-13 0)
(0.039968046 -4.3114569e-13 0)
(0.039968046 -2.3275283e-13 0)
(0.039968046 -3.7943499e-13 0)
(0.039968046 -1.6357441e-13 0)
(0.039968046 -3.2222461e-13 0)
(0.039968046 -9.4227338e-14 0)
(0.039968046 -2.6774305e-13 0)
(0.039968046 -7.0549416e-14 0)
(0.039968046 -2.1447151e-13 0)
(0.039968046 5.6182514e-14 0)
(0.039968046 -4.5366869e-14 0)
(0.039968046 1.3348378e-13 0)
(0.039968046 -2.5407385e-13 0)
(0.039968046 -3.8026282e-13 0)
(0.039968046 -6.7902866e-13 0)
(0.039968046 -2.7546117e-13 0)
(0.039968046 1.1128979e-13 0)
(0.039968046 6.6021403e-13 0)
(0.039968046 7.8426059e-13 0)
(0.039968046 8.7433405e-13 0)
(0.039968046 5.6627485e-13 0)
(0.039968046 4.8966229e-13 0)
(0.039968046 3.6987965e-13 0)
(0.039968046 3.3751856e-13 0)
(0.039968046 2.2059024e-13 0)
(0.039968046 1.4342548e-13 0)
(0.039968046 1.0008397e-13 0)
(0.039968046 3.53892e-14 0)
(0.039968046 5.7429392e-14 0)
(0.039968046 -1.6212257e-15 0)
(0.039968046 5.6766688e-14 0)
(0.039968046 -2.3122361e-14 0)
(0.039968046 5.6031365e-14 0)
(0.039968046 -5.0184208e-14 0)
(0.039968046 4.8050295e-14 0)
(0.039968046 -7.8482389e-14 0)
(0.039968046 3.3721078e-14 0)
(0.039968046 -1.0847054e-13 0)
(0.039968046 1.5562023e-14 0)
(0.039968046 -1.38776e-13 0)
(0.039968046 -4.0402475e-15 0)
(0.039968046 -1.7055492e-13 0)
(0.039968046 -2.7716959e-14 0)
(0.039968046 -2.0276833e-13 0)
(0.039968046 -4.9278835e-14 0)
(0.039968046 -2.2857286e-13 0)
(0.039968046 -6.9110492e-14 0)
(0.039968046 -2.4838282e-13 0)
(0.039968046 -9.6085942e-14 0)
(0.039968046 -2.7851256e-13 0)
(0.039968046 -1.3552018e-13 0)
(0.039968046 -3.170448e-13 0)
(0.039968046 -1.7939671e-13 0)
(0.039968046 -3.4761666e-13 0)
(0.039968046 -2.1548369e-13 0)
(0.039968046 -3.5709211e-13 0)
(0.039968046 -2.4715918e-13 0)
(0.039968046 -3.9094335e-13 0)
(0.039968046 -2.7991656e-13 0)
(0.039968046 -3.432084e-13 0)
(0.039968046 -1.7362998e-13 0)
(0.039968046 -2.5213816e-13 0)
(0.039968046 -3.3862494e-13 0)
(0.039968046 -6.6244139e-13 0)
(0.039968046 -7.7229304e-13 0)
(0.039968046 -7.7217005e-13 0)
(0.039968046 -3.0245365e-13 0)
(0.039968046 -6.3957792e-15 0)
(0.039968046 2.4784954e-13 0)
(0.039968046 2.1134177e-13 0)
(0.039968046 1.0147059e-14 0)
(0.039968046 -1.2462501e-13 0)
(0.039968046 -1.9261724e-13 0)
(0.039968046 -2.1959162e-13 0)
(0.039968046 -2.6961899e-13 0)
(0.039968046 -2.571975e-13 0)
(0.039968046 -3.0276166e-13 0)
(0.039968046 -2.7575127e-13 0)
(0.039968046 -3.2376798e-13 0)
(0.039968046 -2.7762978e-13 0)
(0.039968046 -3.3323547e-13 0)
(0.039968046 -2.7694643e-13 0)
(0.039968046 -3.4127789e-13 0)
(0.039968046 -2.7538713e-13 0)
(0.039968046 -3.5126925e-13 0)
(0.039968046 -2.7922573e-13 0)
(0.039968046 -3.7885107e-13 0)
(0.039968046 -3.0133801e-13 0)
(0.039968046 -4.0828966e-13 0)
(0.039968046 -3.1396279e-13 0)
(0.039968046 -4.1041513e-13 0)
(0.039968046 -2.9950926e-13 0)
(0.039968046 -3.9217638e-13 0)
(0.039968046 -2.230456e-13 0)
(0.039968046 -2.9989754e-13 0)
(0.039968046 -1.0754012e-13 0)
(0.039968046 -2.2180884e-13 0)
(0.039968046 -5.282415e-14 0)
(0.039968046 -1.8228849e-13 0)
(0.039968046 -5.8921006e-15 0)
(0.039968046 -5.5800505e-14 0)
(0.039968046 1.6241697e-13 0)
(0.039968046 5.3994115e-14 0)
(0.039968046 8.2189387e-14 0)
(0.039968046 -1.8434691e-13 0)
(0.039968046 -1.9899202e-13 0)
(0.039968046 -1.5259238e-13 0)
(0.039968046 7.9285904e-14 0)
(0.039968046 2.8555666e-13 0)
(0.039968046 2.5684728e-13 0)
(0.039968046 3.0859279e-13 0)
(0.039968046 2.6508667e-13 0)
(0.039968046 2.8768455e-13 0)
(0.039968046 1.0932861e-13 0)
(0.039968046 9.0376354e-14 0)
(0.039968046 -3.30401e-14 0)
(0.039968046 1.5312674e-13 0)
(0.039968046 2.0540653e-13 0)
(0.039968046 4.2046003e-13 0)
(0.039968046 3.0104477e-13 0)
(0.039968046 1.9315904e-13 0)
(0.039968046 -4.1646229e-14 0)
(0.039968046 -9.489215e-14 0)
(0.039968046 -2.1482154e-13 0)
(0.039968046 -2.077613e-13 0)
(0.039968046 -2.7868556e-13 0)
(0.039968046 -2.4713656e-13 0)
(0.039968046 -2.9581912e-13 0)
(0.039968046 -2.7670555e-13 0)
(0.039968046 -3.1499804e-13 0)
(0.039968046 -3.2588119e-13 0)
(0.039968046 -3.5223193e-13 0)
(0.039968046 -3.6641077e-13 0)
(0.039968046 -3.298351e-13 0)
(0.039968046 -3.0566744e-13 0)
(0.039968046 -2.1731265e-13 0)
(0.039968046 -2.3812534e-13 0)
(0.039968046 -1.5777779e-13 0)
(0.039968046 -1.9141957e-13 0)
(0.039968046 -6.1003296e-14 0)
(0.039968046 -5.43501e-14 0)
(0.039968046 1.2281721e-14 0)
(0.039968046 -1.7737519e-13 0)
(0.039968046 -2.9536422e-13 0)
(0.039968046 -4.8318591e-13 0)
(0.039968046 -4.1790166e-13 0)
(0.039968046 -3.1310133e-13 0)
(0.039968046 -1.2547552e-13 0)
(0.039968046 -3.0592174e-14 0)
(0.039968046 2.2234391e-13 0)
(0.039968046 4.6149471e-13 0)
(0.039968046 7.3092647e-13 0)
(0.039968046 6.6890912e-13 0)
(0.039968046 4.2488e-13 0)
(0.039968046 -3.2944353e-15 0)
(0.039968046 -2.8834948e-13 0)
(0.039968046 -3.7063223e-13 0)
(0.039968046 -1.9712373e-13 0)
(0.039968046 1.4560723e-13 0)
(0.039968046 4.5411271e-13 0)
(0.039968046 6.8532491e-13 0)
(0.039968046 6.2729693e-13 0)
(0.039968046 3.0637502e-13 0)
(0.039968046 -1.2766843e-13 0)
(0.039968046 -4.5255032e-13 0)
(0.039968046 -6.3554675e-13 0)
(0.039968046 -4.1130462e-13 0)
(0.039968046 -1.1867523e-13 0)
(0.039968046 2.5005538e-13 0)
(0.039968046 4.0619446e-13 0)
(0.039968046 4.2619466e-13 0)
(0.039968046 2.3475823e-13 0)
(0.039968046 8.3151584e-14 0)
(0.039968046 -4.4577722e-14 0)
(0.039968046 -7.8408493e-14 0)
(0.039968046 -1.1786997e-13 0)
(0.039968046 -1.2093598e-13 0)
(0.039968046 -1.6542553e-13 0)
(0.039968046 -1.5370716e-13 0)
(0.039968046 -1.2755541e-13 0)
(0.039968046 -7.5619082e-14 0)
(0.039968046 -1.065961e-13 0)
(0.039968046 -2.2482208e-13 0)
(0.039968046 -4.000648e-13 0)
(0.039968046 -5.3881471e-13 0)
(0.039968046 -5.2233557e-13 0)
(0.039968046 -3.1231702e-13 0)
(0.039968046 -1.0624732e-13 0)
(0.039968046 6.512875e-14 0)
(0.039968046 1.0791218e-13 0)
(0.039968046 7.9205562e-14 0)
(0.039968046 5.6893869e-14 0)
(0.039968046 1.2244351e-13 0)
(0.039968046 2.7670639e-13 0)
(0.039968046 4.6647435e-13 0)
(0.039968046 5.8410269e-13 0)
(0.039968046 4.8189078e-13 0)
(0.039968046 2.8517511e-13 0)
(0.039968046 8.8573828e-14 0)
(0.039968046 -3.2535857e-14 0)
(0.039968046 -8.5961039e-14 0)
(0.039968046 -9.7981744e-14 0)
(0.039968046 -1.1115332e-13 0)
(0.039968046 -1.6224303e-13 0)
(0.039968046 -1.9032571e-13 0)
(0.039968046 -1.0440254e-13 0)
(0.039968046 9.4909079e-15 0)
(0.039968046 -1.2987847e-13 0)
(0.039968046 -5.0817011e-13 0)
(0.039968046 -4.7639637e-13 0)
(0.36732383 0.14062829 0)
(0.29754388 0.025079376 0)
(0.1860793 0.0083694638 0)
(0.16132807 0.0041218837 0)
(0.1390186 0.0019375895 0)
(0.13040448 0.0011770303 0)
(0.12396462 0.00061113081 0)
(0.12095999 0.00037191916 0)
(0.1189454 0.00019726563 0)
(0.11794826 0.00011564198 0)
(0.11733081 6.0261898e-05 0)
(0.11702581 3.3417733e-05 0)
(0.11685065 1.6513272e-05 0)
(0.11676842 8.3935667e-06 0)
(0.1167257 3.663564e-06 0)
(0.11670834 1.5209003e-06 0)
(0.1167012 3.9951261e-07 0)
(0.11669986 -2.792887e-08 0)
(0.1167004 -1.9884941e-07 0)
(0.11670175 -2.1574938e-07 0)
(0.11670304 -1.9026942e-07 0)
(0.11670415 -1.4605532e-07 0)
(0.11670497 -1.0646874e-07 0)
(0.11670557 -7.3405912e-08 0)
(0.11670597 -4.9248314e-08 0)
(0.11670624 -3.1970562e-08 0)
(0.11670642 -2.0346755e-08 0)
(0.11670653 -1.2639742e-08 0)
(0.11670659 -7.7167545e-09 0)
(0.11670664 -4.6125895e-09 0)
(0.11670666 -2.7108768e-09 0)
(0.11670667 -1.5601459e-09 0)
(0.11670668 -8.8290023e-10 0)
(0.11670669 -4.8725077e-10 0)
(0.11670669 -2.6255533e-10 0)
(0.11670669 -1.3563914e-10 0)
(0.11670669 -6.7847327e-11 0)
(0.11670669 -3.0989508e-11 0)
(0.11670669 -1.3329068e-11 0)
(0.11670669 -3.578592e-12 0)
(0.11670669 7.6193047e-14 0)
(0.11670669 1.983315e-12 0)
(0.11670669 1.2671846e-12 0)
(0.11670669 1.5270316e-12 0)
(0.11670669 2.3608314e-12 0)
(0.11670669 4.0455169e-12 0)
(0.11670669 4.2802142e-12 0)
(0.11670669 3.2525808e-12 0)
(0.11670669 2.0669097e-12 0)
(0.11670669 1.094017e-12 0)
(0.11670669 6.2173592e-13 0)
(0.11670669 1.8082536e-13 0)
(0.11670669 3.7245157e-13 0)
(0.11670669 -4.7357346e-14 0)
(0.11670669 3.0518052e-14 0)
(0.11670669 -8.2495228e-13 0)
(0.11670669 -1.1982798e-12 0)
(0.11670669 -1.8198431e-12 0)
(0.11670669 -1.3002646e-12 0)
(0.11670669 -1.1824293e-12 0)
(0.11670669 -3.0484998e-13 0)
(0.11670669 -2.1638825e-13 0)
(0.11670669 2.802057e-13 0)
(0.11670669 -4.681989e-14 0)
(0.11670669 5.9685064e-15 0)
(0.11670669 -4.9143097e-13 0)
(0.11670669 -3.4005273e-13 0)
(0.11670669 -9.2817376e-13 0)
(0.11670669 -5.3490828e-13 0)
(0.11670669 -3.7184429e-13 0)
(0.11670669 -2.3427484e-15 0)
(0.11670669 -1.3233626e-13 0)
(0.11670669 -2.0783808e-13 0)
(0.11670669 -3.3135247e-13 0)
(0.11670669 -5.5234553e-13 0)
(0.11670669 -6.731389e-13 0)
(0.11670669 -8.2622469e-13 0)
(0.11670669 -8.4116399e-13 0)
(0.11670669 -9.9012923e-13 0)
(0.11670669 -9.207702e-13 0)
(0.11670669 -1.0746139e-12 0)
(0.11670669 -8.9283181e-13 0)
(0.11670669 -1.0481283e-12 0)
(0.11670669 -7.927331e-13 0)
(0.11670669 -9.6820555e-13 0)
(0.11670669 -6.683712e-13 0)
(0.11670669 -8.6257943e-13 0)
(0.11670669 -5.5344879e-13 0)
(0.11670669 -7.4101105e-13 0)
(0.11670669 -4.2605884e-13 0)
(0.11670669 -5.9503233e-13 0)
(0.11670669 -1.2722566e-13 0)
(0.11670669 -4.8036476e-13 0)
(0.11670669 7.3381979e-14 0)
(0.11670669 -3.7800453e-13 0)
(0.11670669 2.5187758e-13 0)
(0.11670669 -1.9520814e-13 0)
(0.11670669 3.0160391e-13 0)
(0.11670669 -8.7640442e-14 0)
(0.11670669 5.5900538e-13 0)
(0.11670669 2.9359178e-13 0)
(0.11670669 8.3815819e-13 0)
(0.11670669 1.8873082e-15 0)
(0.11670669 -3.4963731e-13 0)
(0.11670669 -1.4103267e-12 0)
(0.11670669 -8.3908477e-13 0)
(0.11670669 -8.4443581e-14 0)
(0.11670669 1.0695984e-12 0)
(0.11670669 1.5547999e-12 0)
(0.11670669 1.9890756e-12 0)
(0.11670669 1.5253229e-12 0)
(0.11670669 1.5199574e-12 0)
(0.11670669 1.3854858e-12 0)
(0.11670669 1.3487364e-12 0)
(0.11670669 1.1018025e-12 0)
(0.11670669 9.082064e-13 0)
(0.11670669 7.9490262e-13 0)
(0.11670669 6.4016275e-13 0)
(0.11670669 6.9132185e-13 0)
(0.11670669 5.5748364e-13 0)
(0.11670669 6.9126534e-13 0)
(0.11670669 5.0486781e-13 0)
(0.11670669 6.8124587e-13 0)
(0.11670669 4.3006101e-13 0)
(0.11670669 6.5002922e-13 0)
(0.11670669 3.501966e-13 0)
(0.11670669 6.0251295e-13 0)
(0.11670669 2.657922e-13 0)
(0.11670669 5.4681548e-13 0)
(0.11670669 1.8050436e-13 0)
(0.11670669 4.881453e-13 0)
(0.11670669 9.2291589e-14 0)
(0.11670669 4.2002608e-13 0)
(0.11670669 2.1513692e-15 0)
(0.11670669 3.57806e-13 0)
(0.11670669 -7.542121e-14 0)
(0.11670669 2.9759281e-13 0)
(0.11670669 -1.4734229e-13 0)
(0.11670669 2.2033466e-13 0)
(0.11670669 -2.5303944e-13 0)
(0.11670669 1.1063425e-13 0)
(0.11670669 -3.8074375e-13 0)
(0.11670669 -1.0550509e-14 0)
(0.11670669 -4.4167198e-13 0)
(0.11670669 -1.2798089e-13 0)
(0.11670669 -4.6063084e-13 0)
(0.11670669 -2.2708737e-13 0)
(0.11670669 -5.3852637e-13 0)
(0.11670669 -3.2468404e-13 0)
(0.11670669 -4.3604813e-13 0)
(0.11670669 -2.789535e-14 0)
(0.11670669 -1.4569435e-13 0)
(0.11670669 -3.6586403e-13 0)
(0.11670669 -1.0561741e-12 0)
(0.11670669 -1.515016e-12 0)
(0.11670669 -1.783333e-12 0)
(0.11670669 -9.5483568e-13 0)
(0.11670669 -3.2664295e-13 0)
(0.11670669 3.7009501e-13 0)
(0.11670669 4.4248239e-13 0)
(0.11670669 1.9178581e-13 0)
(0.11670669 -4.7353252e-15 0)
(0.11670669 -1.1647481e-13 0)
(0.11670669 -1.4375666e-13 0)
(0.11670669 -2.4522056e-13 0)
(0.11670669 -2.2340664e-13 0)
(0.11670669 -3.3513846e-13 0)
(0.11670669 -2.8475947e-13 0)
(0.11670669 -3.9109248e-13 0)
(0.11670669 -2.9697286e-13 0)
(0.11670669 -4.1444484e-13 0)
(0.11670669 -3.0052674e-13 0)
(0.11670669 -4.3573817e-13 0)
(0.11670669 -3.0369999e-13 0)
(0.11670669 -4.6381868e-13 0)
(0.11670669 -3.1743947e-13 0)
(0.11670669 -5.3439046e-13 0)
(0.11670669 -3.7559965e-13 0)
(0.11670669 -6.1604457e-13 0)
(0.11670669 -4.036101e-13 0)
(0.11670669 -6.1298521e-13 0)
(0.11670669 -3.7552552e-13 0)
(0.11670669 -5.6127798e-13 0)
(0.11670669 -1.8790003e-13 0)
(0.11670669 -3.330749e-13 0)
(0.11670669 1.4954039e-13 0)
(0.11670669 -1.3789467e-13 0)
(0.11670669 3.4452691e-13 0)
(0.11670669 2.7530471e-14 0)
(0.11670669 4.5964915e-13 0)
(0.11670669 3.2145893e-13 0)
(0.11670669 8.737355e-13 0)
(0.11670669 6.7421214e-13 0)
(0.11670669 7.9028802e-13 0)
(0.11670669 1.0894632e-13 0)
(0.11670669 -1.0731821e-13 0)
(0.11670669 -3.0239355e-13 0)
(0.11670669 -2.2580143e-15 0)
(0.11670669 2.6471015e-13 0)
(0.11670669 1.9426745e-13 0)
(0.11670669 2.4394222e-13 0)
(0.11670669 1.3499145e-13 0)
(0.11670669 1.9613442e-13 0)
(0.11670669 -1.9304237e-13 0)
(0.11670669 -2.6461069e-13 0)
(0.11670669 -5.8799267e-13 0)
(0.11670669 -1.9133056e-13 0)
(0.11670669 -7.8996484e-14 0)
(0.11670669 5.9877652e-13 0)
(0.11670669 5.6871917e-13 0)
(0.11670669 5.982025e-13 0)
(0.11670669 1.9214408e-13 0)
(0.11670669 1.4606649e-13 0)
(0.11670669 -1.0371637e-13 0)
(0.11670669 -1.1378127e-13 0)
(0.11670669 -2.6091096e-13 0)
(0.11670669 -1.7572124e-13 0)
(0.11670669 -3.018733e-13 0)
(0.11670669 -2.6225543e-13 0)
(0.11670669 -3.4472983e-13 0)
(0.11670669 -3.7411404e-13 0)
(0.11670669 -4.2702991e-13 0)
(0.11670669 -4.4525035e-13 0)
(0.11670669 -3.7127505e-13 0)
(0.11670669 -3.0580106e-13 0)
(0.11670669 -8.7856258e-14 0)
(0.11670669 -1.4923298e-13 0)
(0.11670669 9.6093181e-14 0)
(0.11670669 -2.7381498e-14 0)
(0.11670669 2.8402565e-13 0)
(0.11670669 2.7002947e-13 0)
(0.11670669 5.218039e-13 0)
(0.11670669 1.4958103e-13 0)
(0.11670669 -1.3107924e-13 0)
(0.11670669 -7.6656979e-13 0)
(0.11670669 -8.1766609e-13 0)
(0.11670669 -8.3715002e-13 0)
(0.11670669 -5.8718537e-13 0)
(0.11670669 -4.8438911e-13 0)
(0.11670669 1.1171064e-13 0)
(0.11670669 5.6461892e-13 0)
(0.11670669 1.3396415e-12 0)
(0.11670669 1.5657806e-12 0)
(0.11670669 1.245742e-12 0)
(0.11670669 3.9134259e-13 0)
(0.11670669 -3.1057768e-13 0)
(0.11670669 -7.6853805e-13 0)
(0.11670669 -6.4167562e-13 0)
(0.11670669 -3.5002298e-14 0)
(0.11670669 6.0124663e-13 0)
(0.11670669 1.2281927e-12 0)
(0.11670669 1.3344703e-12 0)
(0.11670669 9.1180071e-13 0)
(0.11670669 3.0039353e-14 0)
(0.11670669 -7.1446498e-13 0)
(0.11670669 -1.3501629e-12 0)
(0.11670669 -1.1339379e-12 0)
(0.11670669 -5.9704487e-13 0)
(0.11670669 1.5517124e-13 0)
(0.11670669 6.2202323e-13 0)
(0.11670669 8.9140344e-13 0)
(0.11670669 6.7457222e-13 0)
(0.11670669 4.8952303e-13 0)
(0.11670669 2.5121226e-13 0)
(0.11670669 1.9898727e-13 0)
(0.11670669 1.1685092e-13 0)
(0.11670669 1.4772073e-13 0)
(0.11670669 5.0202306e-14 0)
(0.11670669 6.5193638e-14 0)
(0.11670669 1.0297655e-13 0)
(0.11670669 2.1623618e-13 0)
(0.11670669 2.0987942e-13 0)
(0.11670669 4.3832982e-14 0)
(0.11670669 -3.6999625e-13 0)
(0.11670669 -8.6223454e-13 0)
(0.11670669 -1.0527371e-12 0)
(0.11670669 -8.5486083e-13 0)
(0.11670669 -5.1381779e-13 0)
(0.11670669 -1.8659964e-13 0)
(0.11670669 -1.3116893e-13 0)
(0.11670669 -2.0501292e-13 0)
(0.11670669 -2.6545254e-13 0)
(0.11670669 -2.0479845e-13 0)
(0.11670669 9.7802187e-14 0)
(0.11670669 6.2382707e-13 0)
(0.11670669 1.0708988e-12 0)
(0.11670669 1.1254461e-12 0)
(0.11670669 8.7818438e-13 0)
(0.11670669 5.4370303e-13 0)
(0.11670669 2.7744023e-13 0)
(0.11670669 2.1212743e-13 0)
(0.11670669 1.9107216e-13 0)
(0.11670669 1.7612318e-13 0)
(0.11670669 7.687377e-14 0)
(0.11670669 -1.874202e-14 0)
(0.11670669 1.2884284e-13 0)
(0.11670669 4.25795e-13 0)
(0.11670669 2.4178841e-13 0)
(0.11670669 -6.1854841e-13 0)
(0.11670669 -9.0989274e-13 0)
(0.50390834 0.1901902 0)
(0.43847039 0.050431494 0)
(0.29767008 0.022055315 0)
(0.25944374 0.010780108 0)
(0.22598939 0.0055621495 0)
(0.21213187 0.0032308065 0)
(0.20205719 0.0017732931 0)
(0.19716897 0.0010457387 0)
(0.19394744 0.00057679389 0)
(0.19230772 0.00033133354 0)
(0.19130242 0.00017832993 0)
(0.19079327 9.7727629e-05 0)
(0.19050201 4.9923695e-05 0)
(0.1903612 2.5326608e-05 0)
(0.19028762 1.1619681e-05 0)
(0.19025609 4.9684128e-06 0)
(0.1902425 1.5961076e-06 0)
(0.19023894 1.7342405e-07 0)
(0.19023899 -3.9971081e-07 0)
(0.19024063 -5.223713e-07 0)
(0.19024241 -4.8487837e-07 0)
(0.19024402 -3.8484708e-07 0)
(0.19024524 -2.8491213e-07 0)
(0.19024615 -1.9934693e-07 0)
(0.19024677 -1.3489425e-07 0)
(0.19024719 -8.8401473e-08 0)
(0.19024746 -5.6644263e-08 0)
(0.19024763 -3.5467007e-08 0)
(0.19024774 -2.1799116e-08 0)
(0.1902478 -1.3134763e-08 0)
(0.19024784 -7.7765484e-09 0)
(0.19024787 -4.5141684e-09 0)
(0.19024788 -2.5727234e-09 0)
(0.19024789 -1.4325536e-09 0)
(0.19024789 -7.7862535e-10 0)
(0.19024789 -4.0861178e-10 0)
(0.1902479 -2.0713369e-10 0)
(0.1902479 -9.8077118e-11 0)
(0.1902479 -4.3331995e-11 0)
(0.1902479 -1.497083e-11 0)
(0.1902479 -2.5177073e-12 0)
(0.1902479 3.1735272e-12 0)
(0.1902479 3.3504796e-12 0)
(0.1902479 3.8333981e-12 0)
(0.1902479 4.8314193e-12 0)
(0.1902479 6.2749927e-12 0)
(0.1902479 6.1313575e-12 0)
(0.1902479 4.7094559e-12 0)
(0.1902479 3.099157e-12 0)
(0.1902479 1.8008629e-12 0)
(0.1902479 1.2483036e-12 0)
(0.1902479 6.4821051e-13 0)
(0.1902479 9.8895517e-13 0)
(0.1902479 3.6503971e-13 0)
(0.1902479 5.4858024e-13 0)
(0.1902479 -6.2007603e-13 0)
(0.1902479 -1.0301539e-12 0)
(0.1902479 -1.9075548e-12 0)
(0.1902479 -1.2905045e-12 0)
(0.1902479 -1.2898444e-12 0)
(0.1902479 -2.088782e-13 0)
(0.1902479 -1.8151446e-13 0)
(0.1902479 5.2351761e-13 0)
(0.1902479 2.5112154e-14 0)
(0.1902479 2.1842003e-13 0)
(0.1902479 -5.1961041e-13 0)
(0.1902479 -3.2818982e-13 0)
(0.1902479 -1.1284061e-12 0)
(0.1902479 -7.1015937e-13 0)
(0.1902479 -6.5399218e-13 0)
(0.1902479 -2.0213139e-13 0)
(0.1902479 -3.4006881e-13 0)
(0.1902479 -5.0895319e-13 0)
(0.1902479 -6.8953324e-13 0)
(0.1902479 -8.4402279e-13 0)
(0.1902479 -9.8669348e-13 0)
(0.1902479 -1.1526546e-12 0)
(0.1902479 -1.1646272e-12 0)
(0.1902479 -1.3742849e-12 0)
(0.1902479 -1.2556832e-12 0)
(0.1902479 -1.4796705e-12 0)
(0.1902479 -1.2208824e-12 0)
(0.1902479 -1.4462456e-12 0)
(0.1902479 -1.0799538e-12 0)
(0.1902479 -1.3320161e-12 0)
(0.1902479 -8.9217665e-13 0)
(0.1902479 -1.1854612e-12 0)
(0.1902479 -7.048647e-13 0)
(0.1902479 -1.011936e-12 0)
(0.1902479 -4.983166e-13 0)
(0.1902479 -7.9584958e-13 0)
(0.1902479 -1.179107e-13 0)
(0.1902479 -6.1489962e-13 0)
(0.1902479 1.4903918e-13 0)
(0.1902479 -4.4842949e-13 0)
(0.1902479 3.7503222e-13 0)
(0.1902479 -2.3149325e-13 0)
(0.1902479 4.3450751e-13 0)
(0.1902479 -1.0280369e-13 0)
(0.1902479 7.3295649e-13 0)
(0.1902479 3.5110412e-13 0)
(0.1902479 1.0512828e-12 0)
(0.1902479 -3.4491422e-14 0)
(0.1902479 -3.6644001e-13 0)
(0.1902479 -1.662017e-12 0)
(0.1902479 -9.8909845e-13 0)
(0.1902479 -2.0069072e-13 0)
(0.1902479 1.1902818e-12 0)
(0.1902479 1.6806864e-12 0)
(0.1902479 2.2644992e-12 0)
(0.1902479 1.7858752e-12 0)
(0.1902479 1.8965672e-12 0)
(0.1902479 1.7867766e-12 0)
(0.1902479 1.8054601e-12 0)
(0.1902479 1.5280228e-12 0)
(0.1902479 1.3110265e-12 0)
(0.1902479 1.1942822e-12 0)
(0.1902479 9.9905386e-13 0)
(0.1902479 1.0773706e-12 0)
(0.1902479 8.9388385e-13 0)
(0.1902479 1.0757336e-12 0)
(0.1902479 8.1853793e-13 0)
(0.1902479 1.0568953e-12 0)
(0.1902479 7.1233014e-13 0)
(0.1902479 1.0094606e-12 0)
(0.1902479 5.9790041e-13 0)
(0.1902479 9.4129814e-13 0)
(0.1902479 4.7849652e-13 0)
(0.1902479 8.6493848e-13 0)
(0.1902479 3.5849751e-13 0)
(0.1902479 7.8345268e-13 0)
(0.1902479 2.3616394e-13 0)
(0.1902479 6.8940718e-13 0)
(0.1902479 1.1236119e-13 0)
(0.1902479 5.9831308e-13 0)
(0.1902479 4.5732079e-16 0)
(0.1902479 5.0598346e-13 0)
(0.1902479 -1.0560992e-13 0)
(0.1902479 3.9204616e-13 0)
(0.1902479 -2.4950307e-13 0)
(0.1902479 2.3638577e-13 0)
(0.1902479 -4.1921607e-13 0)
(0.1902479 6.5528383e-14 0)
(0.1902479 -5.2469286e-13 0)
(0.1902479 -9.6862909e-14 0)
(0.1902479 -5.7171242e-13 0)
(0.1902479 -2.2936219e-13 0)
(0.1902479 -6.6996171e-13 0)
(0.1902479 -3.4834074e-13 0)
(0.1902479 -5.4979133e-13 0)
(0.1902479 -1.5882425e-14 0)
(0.1902479 -2.1366576e-13 0)
(0.1902479 -4.029895e-13 0)
(0.1902479 -1.2585635e-12 0)
(0.1902479 -1.7337858e-12 0)
(0.1902479 -2.0794577e-12 0)
(0.1902479 -1.1193675e-12 0)
(0.1902479 -4.3431005e-13 0)
(0.1902479 3.5798301e-13 0)
(0.1902479 4.1970113e-13 0)
(0.1902479 1.4651524e-13 0)
(0.1902479 -9.4007749e-14 0)
(0.1902479 -2.6580619e-13 0)
(0.1902479 -2.5874263e-13 0)
(0.1902479 -3.8684226e-13 0)
(0.1902479 -3.3108654e-13 0)
(0.1902479 -4.8358969e-13 0)
(0.1902479 -3.9079116e-13 0)
(0.1902479 -5.4966127e-13 0)
(0.1902479 -3.9979643e-13 0)
(0.1902479 -5.8115453e-13 0)
(0.1902479 -4.0255723e-13 0)
(0.1902479 -6.1618058e-13 0)
(0.1902479 -4.1367643e-13 0)
(0.1902479 -6.654765e-13 0)
(0.1902479 -4.4416135e-13 0)
(0.1902479 -7.6860809e-13 0)
(0.1902479 -5.2912609e-13 0)
(0.1902479 -8.9074962e-13 0)
(0.1902479 -5.5980844e-13 0)
(0.1902479 -8.6354594e-13 0)
(0.1902479 -4.8827897e-13 0)
(0.1902479 -7.6777081e-13 0)
(0.1902479 -2.189241e-13 0)
(0.1902479 -4.4766201e-13 0)
(0.1902479 2.2566056e-13 0)
(0.1902479 -1.4917547e-13 0)
(0.1902479 5.0726758e-13 0)
(0.1902479 9.1659579e-14 0)
(0.1902479 6.7614822e-13 0)
(0.1902479 4.5724345e-13 0)
(0.1902479 1.1504086e-12 0)
(0.1902479 8.3645434e-13 0)
(0.1902479 9.888479e-13 0)
(0.1902479 1.2053009e-13 0)
(0.1902479 -1.2018254e-13 0)
(0.1902479 -3.8823637e-13 0)
(0.1902479 -7.8683838e-14 0)
(0.1902479 2.066796e-13 0)
(0.1902479 1.9379498e-13 0)
(0.1902479 2.3315023e-13 0)
(0.1902479 3.4208382e-14 0)
(0.1902479 1.3710368e-13 0)
(0.1902479 -3.6330473e-13 0)
(0.1902479 -3.7291782e-13 0)
(0.1902479 -7.8723528e-13 0)
(0.1902479 -2.566125e-13 0)
(0.1902479 -1.5344871e-13 0)
(0.1902479 6.6307877e-13 0)
(0.1902479 5.9323937e-13 0)
(0.1902479 7.0620802e-13 0)
(0.1902479 2.0849235e-13 0)
(0.1902479 2.0551698e-13 0)
(0.1902479 -1.1491791e-13 0)
(0.1902479 -5.9607591e-14 0)
(0.1902479 -2.5381437e-13 0)
(0.1902479 -1.1316379e-13 0)
(0.1902479 -2.6938345e-13 0)
(0.1902479 -1.9302399e-13 0)
(0.1902479 -2.9687919e-13 0)
(0.1902479 -3.1752845e-13 0)
(0.1902479 -3.8146655e-13 0)
(0.1902479 -4.1300855e-13 0)
(0.1902479 -3.0753828e-13 0)
(0.1902479 -2.4485344e-13 0)
(0.1902479 3.2736279e-14 0)
(0.1902479 -7.5025302e-14 0)
(0.1902479 2.1600448e-13 0)
(0.1902479 3.2263256e-14 0)
(0.1902479 4.1856548e-13 0)
(0.1902479 3.749162e-13 0)
(0.1902479 6.9186724e-13 0)
(0.1902479 2.0244756e-13 0)
(0.1902479 -9.3081617e-14 0)
(0.1902479 -8.5071172e-13 0)
(0.1902479 -8.8305258e-13 0)
(0.1902479 -9.5412177e-13 0)
(0.1902479 -6.7481168e-13 0)
(0.1902479 -5.5918518e-13 0)
(0.1902479 1.2294497e-13 0)
(0.1902479 6.6573515e-13 0)
(0.1902479 1.5702247e-12 0)
(0.1902479 1.8053591e-12 0)
(0.1902479 1.4899673e-12 0)
(0.1902479 4.8237423e-13 0)
(0.1902479 -3.245014e-13 0)
(0.1902479 -8.5903024e-13 0)
(0.1902479 -7.6976181e-13 0)
(0.1902479 -5.0409187e-14 0)
(0.1902479 6.448064e-13 0)
(0.1902479 1.3723268e-12 0)
(0.1902479 1.4714702e-12 0)
(0.1902479 1.0352262e-12 0)
(0.1902479 1.5568139e-14 0)
(0.1902479 -8.1500106e-13 0)
(0.1902479 -1.5595472e-12 0)
(0.1902479 -1.3099553e-12 0)
(0.1902479 -7.3566829e-13 0)
(0.1902479 1.5515981e-13 0)
(0.1902479 6.7708912e-13 0)
(0.1902479 1.0053365e-12 0)
(0.1902479 7.8158548e-13 0)
(0.1902479 5.9856462e-13 0)
(0.1902479 3.2572361e-13 0)
(0.1902479 2.9842718e-13 0)
(0.1902479 1.9818304e-13 0)
(0.1902479 2.447161e-13 0)
(0.1902479 1.2252697e-13 0)
(0.1902479 1.5491861e-13 0)
(0.1902479 2.0611199e-13 0)
(0.1902479 3.6028608e-13 0)
(0.1902479 3.5045147e-13 0)
(0.1902479 1.3349238e-13 0)
(0.1902479 -3.5315987e-13 0)
(0.1902479 -9.2297663e-13 0)
(0.1902479 -1.1496434e-12 0)
(0.1902479 -9.5932339e-13 0)
(0.1902479 -5.9878736e-13 0)
(0.1902479 -2.4884406e-13 0)
(0.1902479 -1.9953385e-13 0)
(0.1902479 -2.9958801e-13 0)
(0.1902479 -3.8119923e-13 0)
(0.1902479 -2.9024165e-13 0)
(0.1902479 6.7640446e-14 0)
(0.1902479 6.8960389e-13 0)
(0.1902479 1.1958946e-12 0)
(0.1902479 1.2716998e-12 0)
(0.1902479 1.0404965e-12 0)
(0.1902479 6.6781776e-13 0)
(0.1902479 3.8999265e-13 0)
(0.1902479 3.164917e-13 0)
(0.1902479 2.9690823e-13 0)
(0.1902479 2.7824713e-13 0)
(0.1902479 1.5605596e-13 0)
(0.1902479 5.0796714e-14 0)
(0.1902479 2.3778085e-13 0)
(0.1902479 5.9216639e-13 0)
(0.1902479 3.523723e-13 0)
(0.1902479 -6.9423279e-13 0)
(0.1902479 -1.0321708e-12 0)
(0.59346672 0.21467329 0)
(0.54593347 0.0759984 0)
(0.39702192 0.039312303 0)
(0.34953974 0.019720571 0)
(0.30792187 0.010726749 0)
(0.28963523 0.006158388 0)
(0.27651264 0.00347619 0)
(0.26994405 0.0020291062 0)
(0.26565503 0.0011409889 0)
(0.26342423 0.00065140481 0)
(0.26206335 0.00035633227 0)
(0.26136077 0.00019487373 0)
(0.26095907 0.00010129504 0)
(0.26076048 5.1592351e-05 0)
(0.260656 2.4316828e-05 0)
(0.26060945 1.064445e-05 0)
(0.26058866 3.7609895e-06 0)
(0.26058217 7.1203785e-07 0)
(0.26058122 -5.4218643e-07 0)
(0.26058278 -8.8379452e-07 0)
(0.2605848 -8.6422978e-07 0)
(0.26058673 -7.0535529e-07 0)
(0.26058825 -5.2968447e-07 0)
(0.26058939 -3.7491911e-07 0)
(0.26059018 -2.5560681e-07 0)
(0.26059072 -1.6870814e-07 0)
(0.26059108 -1.0869051e-07 0)
(0.2605913 -6.8435249e-08 0)
(0.26059144 -4.2264836e-08 0)
(0.26059153 -2.5597884e-08 0)
(0.26059158 -1.5227987e-08 0)
(0.26059162 -8.8858228e-09 0)
(0.26059163 -5.0880447e-09 0)
(0.26059164 -2.8487625e-09 0)
(0.26059165 -1.557058e-09 0)
(0.26059165 -8.2400011e-10 0)
(0.26059166 -4.2120557e-10 0)
(0.26059166 -2.0321769e-10 0)
(0.26059166 -9.2013088e-11 0)
(0.26059166 -3.5081294e-11 0)
(0.26059166 -8.9662627e-12 0)
(0.26059166 3.0341093e-12 0)
(0.26059166 5.712597e-12 0)
(0.26059166 7.4301522e-12 0)
(0.26059166 8.6827464e-12 0)
(0.26059166 9.3358612e-12 0)
(0.26059166 7.6853527e-12 0)
(0.26059166 4.8320321e-12 0)
(0.26059166 2.3552514e-12 0)
(0.26059166 7.3229002e-13 0)
(0.26059166 2.4673913e-13 0)
(0.26059166 -3.0555621e-13 0)
(0.26059166 3.2636094e-13 0)
(0.26059166 -3.3136467e-13 0)
(0.26059166 1.6082755e-13 0)
(0.26059166 -1.0923569e-12 0)
(0.26059166 -1.312782e-12 0)
(0.26059166 -2.1645415e-12 0)
(0.26059166 -1.2573919e-12 0)
(0.26059166 -1.0376974e-12 0)
(0.26059166 4.9376221e-13 0)
(0.26059166 6.6289475e-13 0)
(0.26059166 1.7192259e-12 0)
(0.26059166 1.1388785e-12 0)
(0.26059166 1.6096576e-12 0)
(0.26059166 6.499582e-13 0)
(0.26059166 8.8691351e-13 0)
(0.26059166 6.5992607e-14 0)
(0.26059166 2.1022046e-13 0)
(0.26059166 -3.0248126e-13 0)
(0.26059166 -3.728665e-13 0)
(0.26059166 -1.0067829e-12 0)
(0.26059166 -1.5041478e-12 0)
(0.26059166 -1.8586574e-12 0)
(0.26059166 -2.0570881e-12 0)
(0.26059166 -2.2216925e-12 0)
(0.26059166 -2.4397168e-12 0)
(0.26059166 -2.4219976e-12 0)
(0.26059166 -2.6730425e-12 0)
(0.26059166 -2.517161e-12 0)
(0.26059166 -2.7931165e-12 0)
(0.26059166 -2.4883966e-12 0)
(0.26059166 -2.7701595e-12 0)
(0.26059166 -2.3065878e-12 0)
(0.26059166 -2.6229151e-12 0)
(0.26059166 -2.0363806e-12 0)
(0.26059166 -2.4294656e-12 0)
(0.26059166 -1.7472999e-12 0)