/*--------------------------------*- C++ -*----------------------------------*\
| =========                 |                                                 |
| \\      /  F ield         | OpenFOAM: The Open Source CFD Toolbox           |
|  \\    /   O peration     | Version:  2206                                  |
|   \\  /    A nd           | Website:  www.openfoam.com                      |
|    \\/     M anipulation  |                                                 |
\*---------------------------------------------------------------------------*/
FoamFile
{
    version     2.0;
    format      ascii;
    arch        "LSB;label=32;scalar=64";
    class       surfaceScalarField;
    location    "12";
    object      phi;
}
// * * * * * * * * * * * * * * * * * * * * * * * * * * * * * * * * * * * * * //

dimensions      [0 3 -1 0 0 0 0];

oriented        oriented;

internalField   nonuniform List<scalar> 
29650
(
6.0867648e-05
0.00020579915
3.271817e-05
2.8149476e-05
2.4599021e-05
8.1191477e-06
2.0417849e-05
4.1811737e-06
1.8552178e-05
1.8656722e-06
1.73737e-05
1.1784779e-06
1.6781661e-05
5.9203657e-07
1.6412315e-05
3.6934229e-07
1.6220821e-05
1.9148936e-07
1.6106686e-05
1.1413053e-07
1.6048258e-05
5.8424703e-08
1.6015474e-05
3.2782007e-08
1.5999542e-05
1.5931385e-08
1.5991376e-05
8.1655208e-09
1.5987889e-05
3.4873313e-09
1.598644e-05
1.4490858e-09
1.598609e-05
3.5018707e-10
1.5986138e-05
-4.7533014e-11
1.5986349e-05
-2.1088211e-10
1.5986569e-05
-2.1978785e-10
1.5986762e-05
-1.9224794e-10
1.5986908e-05
-1.4614885e-10
1.5987014e-05
-1.062238e-10
1.5987087e-05
-7.2894541e-11
1.5987136e-05
-4.8829586e-11
1.5987167e-05
-3.1622249e-11
1.5987187e-05
-2.0115779e-11
1.59872e-05
-1.248785e-11
1.5987208e-05
-7.6305421e-12
1.5987212e-05
-4.5654122e-12
1.5987215e-05
-2.6853921e-12
1.5987216e-05
-1.5453572e-12
1.5987217e-05
-8.7151754e-13
1.5987218e-05
-4.7966401e-13
1.5987218e-05
-2.570209e-13
1.5987218e-05
-1.3270157e-13
1.5987218e-05
-6.4816371e-14
1.5987218e-05
-2.9228188e-14
1.5987218e-05
-1.1751707e-14
1.5987218e-05
-3.7253645e-15
1.5987218e-05
-2.742456e-16
1.5987218e-05
1.2400548e-15
1.5987218e-05
1.6794084e-15
1.5987218e-05
1.6762833e-15
1.5987218e-05
1.3203698e-15
1.5987218e-05
9.3129137e-16
1.5987218e-05
7.0210275e-16
1.5987218e-05
5.5220278e-16
1.5987218e-05
5.8120107e-16
1.5987218e-05
5.6951351e-16
1.5987218e-05
7.3504239e-16
1.5987218e-05
5.8715847e-16
1.5987218e-05
7.7864017e-16
1.5987218e-05
5.3537031e-16
1.5987218e-05
6.4776953e-16
1.5987218e-05
1.4257771e-16
1.5987218e-05
1.1650582e-17
1.5987218e-05
-3.9390492e-16
1.5987218e-05
-2.7960228e-16
1.5987218e-05
-4.3833675e-16
1.5987218e-05
-1.512921e-16
1.5987218e-05
-1.5732225e-16
1.5987218e-05
2.0105711e-17
1.5987218e-05
-1.5182807e-16
1.5987218e-05
-1.4830078e-16
1.5987218e-05
-3.6563497e-16
1.5987218e-05
-3.8899955e-16
1.5987218e-05
-5.5228855e-16
1.5987218e-05
-5.4495422e-16
1.5987218e-05
-5.0877858e-16
1.5987218e-05
-5.7467722e-16
1.5987218e-05
-3.8465515e-16
1.5987218e-05
-5.2914771e-16
1.5987218e-05
-3.2400266e-16
1.5987218e-05
-5.0973824e-16
1.5987218e-05
-2.7273523e-16
1.5987218e-05
-4.6760227e-16
1.5987218e-05
-2.2007191e-16
1.5987218e-05
-4.4610096e-16
1.5987218e-05
-2.1030089e-16
1.5987218e-05
-4.4982277e-16
1.5987218e-05
-1.9516027e-16
1.5987218e-05
-4.0706293e-16
1.5987218e-05
-1.4622635e-16
1.5987218e-05
-3.8027732e-16
1.5987218e-05
-1.6748159e-16
1.5987218e-05
-3.6420425e-16
1.5987218e-05
-5.255531e-17
1.5987218e-05
-8.0082051e-17
1.5987218e-05
2.4874175e-16
1.5987218e-05
1.7124917e-16
1.5987218e-05
3.0794855e-16
1.5987218e-05
1.5867743e-16
1.5987218e-05
3.0239351e-16
1.5987218e-05
2.2305707e-16
1.5987218e-05
3.5268753e-16
1.5987218e-05
2.8297211e-16
1.5987218e-05
3.7485872e-16
1.5987218e-05
3.3476128e-16
1.5987218e-05
4.1311461e-16
1.5987218e-05
3.9138704e-16
1.5987218e-05
4.3043979e-16
1.5987218e-05
3.9738903e-16
1.5987218e-05
3.4650682e-16
1.5987218e-05
3.8009273e-16
1.5987218e-05
3.4750099e-16
1.5987218e-05
4.1432987e-16
1.5987218e-05
2.8568336e-16
1.5987218e-05
3.1083346e-16
1.5987218e-05
2.504352e-16
1.5987218e-05
3.0308338e-16
1.5987218e-05
2.7970108e-16
1.5987218e-05
2.7753388e-16
1.5987218e-05
2.2865668e-16
1.5987218e-05
3.3510743e-16
1.5987218e-05
2.4064863e-16
1.5987218e-05
3.0247295e-16
1.5987218e-05
2.0879191e-16
1.5987218e-05
2.8217845e-16
1.5987218e-05
2.4134926e-16
1.5987218e-05
3.2927677e-16
1.5987218e-05
2.8524566e-16
1.5987218e-05
3.2937762e-16
1.5987218e-05
2.4072845e-16
1.5987218e-05
2.5682726e-16
1.5987218e-05
1.6223525e-16
1.5987218e-05
1.9748067e-16
1.5987218e-05
1.231563e-16
1.5987218e-05
1.7052724e-16
1.5987218e-05
1.054997e-16
1.5987218e-05
1.4792093e-16
1.5987218e-05
9.3466762e-17
1.5987218e-05
1.3088344e-16
1.5987218e-05
9.5965891e-17
1.5987218e-05
1.2909337e-16
1.5987218e-05
1.1440065e-16
1.5987218e-05
1.4015722e-16
1.5987218e-05
1.4017143e-16
1.5987218e-05
1.5958391e-16
1.5987218e-05
1.7006078e-16
1.5987218e-05
1.8460114e-16
1.5987218e-05
1.9582914e-16
1.5987218e-05
2.0586487e-16
1.5987218e-05
2.1737526e-16
1.5987218e-05
2.2854022e-16
1.5987218e-05
2.2548992e-16
1.5987218e-05
2.1616002e-16
1.5987218e-05
2.130333e-16
1.5987218e-05
2.5372534e-16
1.5987218e-05
2.894285e-16
1.5987218e-05
2.7320454e-16
1.5987218e-05
1.4642682e-16
1.5987218e-05
-4.4827983e-17
1.5987218e-05
-1.952071e-16
1.5987218e-05
-2.1573415e-16
1.5987218e-05
-1.32359e-16
1.5987218e-05
-8.8956686e-17
1.5987218e-05
-9.7643814e-17
1.5987218e-05
-1.645912e-16
1.5987218e-05
-1.9100472e-16
1.5987218e-05
-2.1988375e-16
1.5987218e-05
-1.9097145e-16
1.5987218e-05
-1.899305e-16
1.5987218e-05
-1.7608382e-16
1.5987218e-05
-2.1674299e-16
1.5987218e-05
-2.048876e-16
1.5987218e-05
-2.2422427e-16
1.5987218e-05
-2.0758874e-16
1.5987218e-05
-2.616601e-16
1.5987218e-05
-2.8173699e-16
1.5987218e-05
-2.9969386e-16
1.5987218e-05
-1.9087647e-16
1.5987218e-05
-4.6432332e-17
1.5987218e-05
1.2144131e-16
1.5987218e-05
1.6702246e-16
1.5987218e-05
1.6153421e-16
1.5987218e-05
1.1195796e-16
1.5987218e-05
1.5358421e-16
1.5987218e-05
1.741809e-16
1.5987218e-05
2.1853246e-16
1.5987218e-05
2.0409313e-16
1.5987218e-05
2.0481933e-16
1.5987218e-05
1.6707875e-16
1.5987218e-05
1.6870248e-16
1.5987218e-05
1.4218789e-16
1.5987218e-05
1.5135311e-16
1.5987218e-05
1.3046887e-16
1.5987218e-05
1.5128911e-16
1.5987218e-05
1.430451e-16
1.5987218e-05
1.6355012e-16
1.5987218e-05
1.452794e-16
1.5987218e-05
1.5505936e-16
1.5987218e-05
1.276586e-16
1.5987218e-05
1.2906139e-16
1.5987218e-05
8.0632908e-17
1.5987218e-05
9.6981594e-17
1.5987218e-05
8.0511863e-17
1.5987218e-05
1.3709352e-16
1.5987218e-05
8.9046219e-17
1.5987218e-05
4.7872603e-17
1.5987218e-05
-7.5229805e-17
1.5987218e-05
-1.5020682e-16
1.5987218e-05
-2.1988475e-16
1.5987218e-05
-1.5150711e-16
1.5987218e-05
-1.4054877e-16
1.5987218e-05
-1.0698565e-16
1.5987218e-05
-1.5587499e-16
1.5987218e-05
-1.6075313e-16
1.5987218e-05
-1.9825168e-16
1.5987218e-05
-1.2479344e-16
1.5987218e-05
-2.0721916e-17
1.5987218e-05
1.467832e-16
1.5987218e-05
2.7131226e-16
1.5987218e-05
3.7054238e-16
1.5987218e-05
3.8035191e-16
1.5987218e-05
3.7935576e-16
1.5987218e-05
3.1232627e-16
1.5987218e-05
1.7051656e-16
1.5987218e-05
-2.4625917e-17
1.5987218e-05
-1.3081365e-16
1.5987218e-05
-7.4669116e-17
1.5987218e-05
6.2481716e-17
1.5987218e-05
2.1427734e-16
1.5987218e-05
2.9594762e-16
1.5987218e-05
3.0380034e-16
1.5987218e-05
2.253717e-16
1.5987218e-05
2.1384291e-16
1.5987218e-05
2.0037661e-16
1.5987218e-05
2.5084443e-16
1.5987218e-05
2.6238387e-16
1.5987218e-05
3.2528368e-16
1.5987218e-05
2.7656948e-16
1.5987218e-05
1.6903311e-16
1.5987218e-05
-4.8359981e-17
1.5987218e-05
-1.9598845e-16
1.5987218e-05
-2.6705925e-16
1.5987218e-05
-2.2746709e-16
1.5987218e-05
-2.3715862e-16
1.5987218e-05
-2.5357814e-16
1.5987218e-05
-2.3662952e-16
1.5987218e-05
-8.9415745e-17
1.5987218e-05
7.1349011e-17
1.5987218e-05
1.9539401e-16
1.5987218e-05
1.9808625e-16
1.5987218e-05
1.7774012e-16
1.5987218e-05
1.7054723e-16
1.5987218e-05
2.0232842e-16
1.5987218e-05
2.3276431e-16
1.5987218e-05
2.7996329e-16
1.5987218e-05
2.9462208e-16
1.5987218e-05
2.5398401e-16
1.5987218e-05
1.1226708e-16
1.5987218e-05
-8.7625075e-17
1.5987218e-05
-2.6892939e-16
1.5987218e-05
-2.9312605e-16
1.5987218e-05
-1.4771016e-16
1.5987218e-05
3.9570104e-17
1.5987218e-05
1.7994737e-16
1.5987218e-05
2.2716109e-16
1.5987218e-05
1.8732644e-16
1.5987218e-05
1.4356635e-16
1.5987218e-05
1.8334917e-16
1.5987218e-05
2.4798578e-16
1.5987218e-05
3.0382896e-16
1.5987218e-05
3.1272898e-16
1.5987218e-05
2.8860238e-16
1.5987218e-05
2.6256202e-16
1.5987218e-05
2.7251695e-16
1.5987218e-05
3.2037708e-16
1.5987218e-05
3.204725e-16
1.5987218e-05
2.4458703e-16
1.5987218e-05
4.5352991e-17
1.5987218e-05
-1.1077193e-16
1.5987218e-05
-2.2140701e-16
1.5987218e-05
-2.0847612e-16
1.5987218e-05
-2.0174366e-16
1.5987218e-05
-2.0699474e-16
1.5987218e-05
-2.5967521e-16
1.5987218e-05
-2.7457766e-16
1.5987218e-05
-3.1316499e-16
1.5987218e-05
-3.4363177e-16
1.5987218e-05
-3.5587682e-16
1.5987218e-05
-2.6850078e-16
1.5987218e-05
-9.1780078e-17
1.5987218e-05
1.0375751e-16
1.5987218e-05
2.241191e-16
1.5987218e-05
2.287872e-16
1.5987218e-05
1.7437704e-16
1.5987218e-05
1.6705834e-16
1.5987218e-05
1.9511051e-16
1.5987218e-05
2.444002e-16
1.5987218e-05
2.6759079e-16
1.5987218e-05
2.7300951e-16
1.5987218e-05
2.2241968e-16
1.5987218e-05
1.8107937e-16
1.5987218e-05
2.1937414e-16
1.5987218e-05
3.3269592e-16
1.5987218e-05
2.7371531e-16
1.5987218e-05
-4.9050439e-17
-2.2520491e-16
0.00014027132
0.00033219463
9.2549243e-05
7.5871549e-05
7.0338073e-05
3.0330321e-05
5.9620314e-05
1.4898939e-05
5.4019642e-05
7.4663515e-06
5.0795344e-05
4.4027828e-06
4.901105e-05
2.3763323e-06
4.7964745e-05
1.415645e-06
4.7384384e-05
7.7184511e-07
4.7052234e-05
4.4627554e-07
4.6872682e-05
2.3797099e-07
4.677453e-05
1.3092978e-07
4.6724187e-05
6.6272692e-08
4.6698685e-05
3.3665936e-08
4.6686924e-05
1.524751e-08
4.6681892e-05
6.4811887e-09
4.6680252e-05
1.9913574e-09
4.6680058e-05
1.4672029e-10
4.6680445e-05
-5.9727651e-10
4.6680961e-05
-7.3611797e-10
4.6681443e-05
-6.7352517e-10
4.6681826e-05
-5.2940401e-10
4.668211e-05
-3.9024882e-10
4.6682309e-05
-2.7189774e-10
4.6682444e-05
-1.8358653e-10
4.6682532e-05
-1.2002686e-10
4.6682589e-05
-7.6808031e-11
4.6682624e-05
-4.8027654e-11
4.6682646e-05
-2.9503437e-11
4.6682659e-05
-1.7768216e-11
4.6682667e-05
-1.0514752e-11
4.6682672e-05
-6.0965299e-12
4.6682674e-05
-3.46481e-12
4.6682676e-05
-1.9240482e-12
4.6682676e-05
-1.0416924e-12
4.6682677e-05
-5.4495729e-13
4.6682677e-05
-2.7227286e-13
4.6682677e-05
-1.2683331e-13
4.6682677e-05
-5.378047e-14
4.6682677e-05
-1.8911507e-14
4.6682677e-05
-3.3897151e-15
4.6682677e-05
3.4390058e-15
4.6682677e-05
5.6131825e-15
4.6682677e-05
5.7524792e-15
4.6682677e-05
4.6821243e-15
4.6682677e-05
3.4179748e-15
4.6682677e-05
2.4986743e-15
4.6682677e-05
1.8640712e-15
4.6682677e-05
1.1867118e-15
4.6682677e-05
1.1611317e-15
4.6682677e-05
1.0285537e-15
4.6682677e-05
9.5127229e-16
4.6682677e-05
9.7219065e-16
4.6682677e-05
6.9336226e-16
4.6682677e-05
7.1538546e-16
4.6682677e-05
-5.6349239e-17
4.6682677e-05
-4.9227846e-16
4.6682677e-05
-8.0538251e-16
4.6682677e-05
-1.262766e-15
4.6682677e-05
-9.4210304e-16
4.6682677e-05
-7.2623626e-16
4.6682677e-05
-1.0084727e-16
4.6682677e-05
2.7387721e-17
4.6682677e-05
3.4263819e-17
4.6682677e-05
-3.5461373e-16
4.6682677e-05
-6.5498937e-16
4.6682677e-05
-8.509231e-16
4.6682677e-05
-9.8455348e-16
4.6682677e-05
-1.0109223e-15
4.6682677e-05
-6.1555646e-16
4.6682677e-05
-1.0340012e-15
4.6682677e-05
-2.9722729e-16
4.6682677e-05
-8.7204611e-16
4.6682677e-05
-2.5180637e-16
4.6682677e-05
-8.4104628e-16
4.6682677e-05
-2.0858223e-16
4.6682677e-05
-7.6332405e-16
4.6682677e-05
-1.1476788e-16
4.6682677e-05
-7.0779828e-16
4.6682677e-05
-1.1157332e-16
4.6682677e-05
-7.2905872e-16
4.6682677e-05
-1.1342133e-16
4.6682677e-05
-6.5086338e-16
4.6682677e-05
-4.109984e-17
4.6682677e-05
-6.3605106e-16
4.6682677e-05
-1.3738887e-16
4.6682677e-05
-5.609781e-16
4.6682677e-05
1.9623935e-16
4.6682677e-05
1.7277515e-16
4.6682677e-05
8.8468174e-16
4.6682677e-05
5.3146691e-16
4.6682677e-05
6.705271e-16
4.6682677e-05
8.9857568e-17
4.6682677e-05
3.3903647e-16
4.6682677e-05
6.0764953e-17
4.6682677e-05
4.026408e-16
4.6682677e-05
2.3059997e-16
4.6682677e-05
4.8726486e-16
4.6682677e-05
3.3265465e-16
4.6682677e-05
5.9135416e-16
4.6682677e-05
5.1145385e-16
4.6682677e-05
6.8106606e-16
4.6682677e-05
5.2014552e-16
4.6682677e-05
4.3695487e-16
4.6682677e-05
4.1942131e-16
4.6682677e-05
4.8401855e-16
4.6682677e-05
6.416279e-16
4.6682677e-05
4.6885797e-16
4.6682677e-05
4.6396912e-16
4.6682677e-05
3.1811981e-16
4.6682677e-05
3.6634426e-16
4.6682677e-05
3.3804198e-16
4.6682677e-05
2.9109616e-16
4.6682677e-05
2.6144407e-16
4.6682677e-05
3.7973636e-16
4.6682677e-05
2.8402527e-16
4.6682677e-05
3.3053408e-16
4.6682677e-05
1.8505402e-16
4.6682677e-05
2.7698761e-16
4.6682677e-05
2.5070508e-16
4.6682677e-05
4.1371016e-16
4.6682677e-05
4.0864584e-16
4.6682677e-05
4.8407858e-16
4.6682677e-05
3.5382909e-16
4.6682677e-05
3.2970422e-16
4.6682677e-05
1.6289294e-16
4.6682677e-05
1.7293108e-16
4.6682677e-05
5.8134468e-17
4.6682677e-05
1.0675095e-16
4.6682677e-05
1.7954474e-17
4.6682677e-05
6.192824e-17
4.6682677e-05
-6.6415792e-18
4.6682677e-05
3.1207661e-17
4.6682677e-05
-7.2301407e-19
4.6682677e-05
3.3107e-17
4.6682677e-05
3.7592941e-17
4.6682677e-05
6.0581377e-17
4.6682677e-05
9.0038299e-17
4.6682677e-05
1.0338069e-16
4.6682677e-05
1.5103669e-16
4.6682677e-05
1.5524091e-16
4.6682677e-05
2.0184389e-16
4.6682677e-05
1.943111e-16
4.6682677e-05
2.4650396e-16
4.6682677e-05
2.4483673e-16
4.6682677e-05
2.6465362e-16
4.6682677e-05
2.1181326e-16
4.6682677e-05
2.4160441e-16
4.6682677e-05
3.3912064e-16
4.6682677e-05
4.4793347e-16
4.6682677e-05
3.3517374e-16
4.6682677e-05
2.4669332e-17
4.6682677e-05
-4.9754468e-16
4.6682677e-05
-7.6210784e-16
4.6682677e-05
-6.5028079e-16
4.6682677e-05
-2.5196848e-16
4.6682677e-05
6.5290316e-17
4.6682677e-05
1.5285062e-16
4.6682677e-05
4.4434719e-17
4.6682677e-05
-3.3179192e-17
4.6682677e-05
-1.3659263e-16
4.6682677e-05
-1.0011503e-16
4.6682677e-05
-1.0391401e-16
4.6682677e-05
-8.7148703e-17
4.6682677e-05
-1.4923578e-16
4.6682677e-05
-1.5344883e-16
4.6682677e-05
-1.7287157e-16
4.6682677e-05
-1.6733385e-16
4.6682677e-05
-2.9195404e-16
4.6682677e-05
-3.6001613e-16
4.6682677e-05
-3.2518283e-16
4.6682677e-05
-6.3624649e-17
4.6682677e-05
3.4904812e-16
4.6682677e-05
6.501556e-16
4.6682677e-05
6.1545971e-16
4.6682677e-05
3.908516e-16
4.6682677e-05
9.6614776e-17
4.6682677e-05
8.645889e-17
4.6682677e-05
1.0944356e-16
4.6682677e-05
2.1238036e-16
4.6682677e-05
2.084931e-16
4.6682677e-05
2.1577436e-16
4.6682677e-05
1.4067671e-16
4.6682677e-05
1.4145484e-16
4.6682677e-05
7.5386353e-17
4.6682677e-05
8.4746567e-17
4.6682677e-05
3.7399637e-17
4.6682677e-05
7.7330326e-17
4.6682677e-05
7.6163638e-17
4.6682677e-05
1.1755222e-16
4.6682677e-05
9.0097746e-17
4.6682677e-05
1.0280497e-16
4.6682677e-05
5.5152034e-17
4.6682677e-05
4.1294013e-17
4.6682677e-05
-5.2865689e-17
4.6682677e-05
-3.2681997e-17
4.6682677e-05
-3.5401754e-17
4.6682677e-05
4.6521998e-17
4.6682677e-05
-9.9564795e-17
4.6682677e-05
-2.8685473e-16
4.6682677e-05
-6.1753913e-16
4.6682677e-05
-7.7434259e-16
4.6682677e-05
-7.5322719e-16
4.6682677e-05
-4.3718028e-16
4.6682677e-05
-2.0585128e-16
4.6682677e-05
-3.5758057e-17
4.6682677e-05
-1.1973306e-16
4.6682677e-05
-1.3822326e-16
4.6682677e-05
-2.4803787e-16
4.6682677e-05
-3.6691298e-17
4.6682677e-05
2.3692713e-16
4.6682677e-05
6.6653734e-16
4.6682677e-05
8.932661e-16
4.6682677e-05
9.904182e-16
4.6682677e-05
8.3142569e-16
4.6682677e-05
6.2288955e-16
4.6682677e-05
3.5175032e-16
4.6682677e-05
-9.8305875e-17
4.6682677e-05
-5.0070988e-16
4.6682677e-05
-6.134619e-16
4.6682677e-05
-1.9731257e-16
4.6682677e-05
3.7251472e-16
4.6682677e-05
8.6518394e-16
4.6682677e-05
1.0191463e-15
4.6682677e-05
8.56062e-16
4.6682677e-05
4.5429945e-16
4.6682677e-05
2.2688675e-16
4.6682677e-05
1.1964131e-16
4.6682677e-05
2.0636842e-16
4.6682677e-05
3.0266045e-16
4.6682677e-05
4.6443416e-16
4.6682677e-05
3.8626468e-16
4.6682677e-05
1.7461382e-17
4.6682677e-05
-4.7706719e-16
4.6682677e-05
-8.1655239e-16
4.6682677e-05
-8.4175054e-16
4.6682677e-05
-5.3839975e-16
4.6682677e-05
-4.0764445e-16
4.6682677e-05
-2.878103e-16
4.6682677e-05
-2.0186124e-16
4.6682677e-05
2.2252342e-16
4.6682677e-05
5.3028694e-16
4.6682677e-05
6.89899e-16
4.6682677e-05
5.1259055e-16
4.6682677e-05
2.3523568e-16
4.6682677e-05
1.2121549e-16
4.6682677e-05
1.0554086e-16
4.6682677e-05
2.0382155e-16
4.6682677e-05
3.4714805e-16
4.6682677e-05
4.0489287e-16
4.6682677e-05
2.6600486e-16
4.6682677e-05
-9.1172545e-17
4.6682677e-05
-6.0781309e-16
4.6682677e-05
-9.5970292e-16
4.6682677e-05
-7.8326714e-16
4.6682677e-05
-1.9718107e-16
4.6682677e-05
4.2974493e-16
4.6682677e-05
8.3820579e-16
4.6682677e-05
8.0360826e-16
4.6682677e-05
5.0225257e-16
4.6682677e-05
1.744839e-16
4.6682677e-05
9.9317348e-17
4.6682677e-05
2.3481064e-16
4.6682677e-05
3.2812577e-16
4.6682677e-05
4.0341031e-16
4.6682677e-05
3.4318545e-16
4.6682677e-05
3.1179456e-16
4.6682677e-05
3.4636098e-16
4.6682677e-05
4.6958953e-16
4.6682677e-05
4.2486321e-16
4.6682677e-05
1.795697e-16
4.6682677e-05
-3.1678714e-16
4.6682677e-05
-6.7163965e-16
4.6682677e-05
-7.6924305e-16
4.6682677e-05
-5.1400718e-16
4.6682677e-05
-2.908089e-16
4.6682677e-05
-1.7763149e-16
4.6682677e-05
-2.432372e-16
4.6682677e-05
-2.8808796e-16
4.6682677e-05
-4.1523578e-16
4.6682677e-05
-5.2247343e-16
4.6682677e-05
-5.5109175e-16
4.6682677e-05
-2.6079733e-16
4.6682677e-05
1.7095462e-16
4.6682677e-05
6.6067961e-16
4.6682677e-05
8.2610012e-16
4.6682677e-05
6.0804525e-16
4.6682677e-05
2.9866662e-16
4.6682677e-05
1.032267e-16
4.6682677e-05
1.266086e-16
4.6682677e-05
2.2318254e-16
4.6682677e-05
3.256885e-16
4.6682677e-05
3.4159813e-16
4.6682677e-05
2.3077745e-16
4.6682677e-05
1.0824966e-16
4.6682677e-05
2.4513099e-16
4.6682677e-05
5.4259271e-16
4.6682677e-05
3.491605e-16
4.6682677e-05
-6.6386628e-16
-9.1092713e-16
0.00019469214
0.00040416928
0.00014360962
0.00012695408
0.00011230147
6.1638464e-05
9.6619294e-05
3.0581119e-05
8.7762221e-05
1.6323425e-05
8.2755406e-05
9.409598e-06
7.9871701e-05
5.260038e-06
7.8206034e-05
3.0813136e-06
7.7256668e-05
1.7212115e-06
7.6718195e-05
9.8474983e-07
7.6420462e-05
5.3570359e-07
7.6258218e-05
2.9317444e-07
7.6172993e-05
1.5149789e-07
7.61296e-05
7.7058999e-08
7.6108851e-05
3.5996214e-08
7.6099695e-05
1.5636731e-08
7.6096324e-05
5.3621931e-09
7.6095587e-05
8.8351828e-10
7.6095937e-05
-9.4648658e-10
7.6096611e-05
-1.4107133e-09
7.609729e-05
-1.3528479e-09
7.6097854e-05
-1.0928789e-09
7.609828e-05
-8.1639401e-10
7.6098584e-05
-5.7540885e-10
7.6098791e-05
-3.9123028e-10
7.6098929e-05
-2.5757761e-10
7.6099018e-05
-1.6565093e-10
7.6099074e-05
-1.0412665e-10
7.6099108e-05
-6.4233635e-11
7.609913e-05
-3.8863402e-11
7.6099142e-05
-2.3096762e-11
7.609915e-05
-1.346197e-11
7.6099154e-05
-7.6935639e-12
7.6099156e-05
-4.3003993e-12
7.6099157e-05
-2.3447679e-12
7.6099158e-05
-1.2389893e-12
7.6099158e-05
-6.2805966e-13
7.6099159e-05
-3.0025442e-13
7.6099159e-05
-1.3166559e-13
7.6099159e-05
-4.9167544e-14
7.6099159e-05
-1.1220317e-14
7.6099159e-05
4.8716015e-15
7.6099159e-05
1.0253308e-14
7.6099159e-05
1.0603043e-14
7.6099159e-05
8.9018402e-15
7.6099159e-05
6.5903995e-15
7.6099159e-05
4.8533099e-15
7.6099159e-05
3.3394434e-15
7.6099159e-05
2.3635356e-15
7.6099159e-05
1.7094225e-15
7.6099159e-05
1.5864729e-15
7.6099159e-05
1.1456426e-15
7.6099159e-05
1.3342819e-15
7.6099159e-05
7.9173501e-16
7.6099159e-05
8.742475e-16
7.6099159e-05
-2.386842e-16
7.6099159e-05
-6.7552959e-16
7.6099159e-05
-1.3455827e-15
7.6099159e-05
-1.3854127e-15
7.6099159e-05
-1.3036334e-15
7.6099159e-05
-6.7231394e-16
7.6099159e-05
-1.7823906e-16
7.6099159e-05
3.0414071e-16
7.6099159e-05
2.4911827e-16
7.6099159e-05
1.4048272e-16
7.6099159e-05
-2.5096058e-16
7.6099159e-05
-4.2270718e-16
7.6099159e-05
-7.4683525e-16
7.6099159e-05
-8.6532145e-16
7.6099159e-05
-7.0134348e-16
7.6099159e-05
-9.897953e-16
7.6099159e-05
-4.4846512e-16
7.6099159e-05
-8.588377e-16
7.6099159e-05
-3.4605061e-16
7.6099159e-05
-8.1246869e-16
7.6099159e-05
-2.6404202e-16
7.6099159e-05
-7.1823908e-16
7.6099159e-05
-1.4487409e-16
7.6099159e-05
-6.4529213e-16
7.6099159e-05
-1.0815065e-16
7.6099159e-05
-6.3789022e-16
7.6099159e-05
-7.1009182e-17
7.6099159e-05
-5.3775422e-16
7.6099159e-05
2.4886559e-17
7.6099159e-05
-4.9758321e-16
7.6099159e-05
-2.8014024e-17
7.6099159e-05
-3.9621602e-16
7.6099159e-05
3.2408742e-16
7.6099159e-05
2.8844928e-16
7.6099159e-05
9.2121708e-16
7.6099159e-05
5.6868548e-16
7.6099159e-05
6.3126025e-16
7.6099159e-05
9.8139559e-17
7.6099159e-05
2.8515886e-16
7.6099159e-05
4.6180668e-17
7.6099159e-05
3.4349491e-16
7.6099159e-05
2.1975749e-16
7.6099159e-05
4.5591858e-16
7.6099159e-05
3.7455627e-16
7.6099159e-05
5.9628252e-16
7.6099159e-05
5.8257659e-16
7.6099159e-05
7.1475004e-16
7.6099159e-05
6.2217691e-16
7.6099159e-05
4.9040086e-16
7.6099159e-05
5.0481505e-16
7.6099159e-05
4.6632105e-16
7.6099159e-05
6.2236444e-16
7.6099159e-05
3.6945034e-16
7.6099159e-05
3.9164062e-16
7.6099159e-05
2.0886019e-16
7.6099159e-05
2.7667198e-16
7.6099159e-05
2.2802216e-16
7.6099159e-05
2.2011191e-16
7.6099159e-05
1.3689205e-16
7.6099159e-05
3.4894253e-16
7.6099159e-05
1.7922778e-16
7.6099159e-05
2.9856906e-16
7.6099159e-05
1.0424876e-16
7.6099159e-05
2.3662811e-16
7.6099159e-05
1.5960718e-16
7.6099159e-05
3.4970565e-16
7.6099159e-05
2.9779293e-16
7.6099159e-05
4.0130614e-16
7.6099159e-05
2.3526344e-16
7.6099159e-05
2.430822e-16
7.6099159e-05
4.1269327e-17
7.6099159e-05
7.7796121e-17
7.6099159e-05
-7.4400813e-17
7.6099159e-05
-5.5612722e-18
7.6099159e-05
-1.2822109e-16
7.6099159e-05
-6.5429371e-17
7.6099159e-05
-1.6109738e-16
7.6099159e-05
-1.0604829e-16
7.6099159e-05
-1.5622736e-16
7.6099159e-05
-1.0594027e-16
7.6099159e-05
-1.1091246e-16
7.6099159e-05
-7.3589068e-17
7.6099159e-05
-4.5226977e-17
7.6099159e-05
-2.0224607e-17
7.6099159e-05
2.8880956e-17
7.6099159e-05
4.0085363e-17
7.6099159e-05
8.849648e-17
7.6099159e-05
8.4536571e-17
7.6099159e-05
1.3565857e-16
7.6099159e-05
1.3312831e-16
7.6099159e-05
1.4958747e-16
7.6099159e-05
1.0059382e-16
7.6099159e-05
1.331397e-16
7.6099159e-05
2.1474949e-16
7.6099159e-05
3.0669788e-16
7.6099159e-05
1.8220094e-16
7.6099159e-05
-1.2428407e-16
7.6099159e-05
-5.8661387e-16
7.6099159e-05
-7.8627087e-16
7.6099159e-05
-6.391157e-16
7.6099159e-05
-1.8623665e-16
7.6099159e-05
1.2765955e-16
7.6099159e-05
2.7326467e-16
7.6099159e-05
1.7976453e-16
7.6099159e-05
1.3368847e-16
7.6099159e-05
2.5030727e-17
7.6099159e-05
6.1750477e-17
7.6099159e-05
2.7820702e-17
7.6099159e-05
4.0865809e-17
7.6099159e-05
-5.7470034e-17
7.6099159e-05
-4.8883523e-17
7.6099159e-05
-9.2787805e-17
7.6099159e-05
-7.7379013e-17
7.6099159e-05
-2.0627485e-16
7.6099159e-05
-2.4816835e-16
7.6099159e-05
-2.239267e-16
7.6099159e-05
5.2451898e-17
7.6099159e-05
3.9849835e-16
7.6099159e-05
6.6590214e-16
7.6099159e-05
5.8085417e-16
7.6099159e-05
3.2865034e-16
7.6099159e-05
2.8343847e-17
7.6099159e-05
-4.2873518e-18
7.6099159e-05
6.4728294e-19
7.6099159e-05
9.4632249e-17
7.6099159e-05
8.5714914e-17
7.6099159e-05
9.6827847e-17
7.6099159e-05
2.7605852e-17
7.6099159e-05
2.7987682e-17
7.6099159e-05
-3.2282056e-17
7.6099159e-05
-2.2893109e-17
7.6099159e-05
-6.2935335e-17
7.6099159e-05
-1.7363538e-17
7.6099159e-05
-1.6871343e-17
7.6099159e-05
2.9682328e-17
7.6099159e-05
9.9616145e-19
7.6099159e-05
1.6660823e-17
7.6099159e-05
-3.8610191e-17
7.6099159e-05
-5.2421794e-17
7.6099159e-05
-1.6382085e-16
7.6099159e-05
-1.4971676e-16
7.6099159e-05
-1.9478954e-16
7.6099159e-05
-1.2784977e-16
7.6099159e-05
-3.0323467e-16
7.6099159e-05
-4.6277358e-16
7.6099159e-05
-7.60849e-16
7.6099159e-05
-8.3881002e-16
7.6099159e-05
-7.9098512e-16
7.6099159e-05
-4.0889418e-16
7.6099159e-05
-1.8949516e-16
7.6099159e-05
1.7362052e-17
7.6099159e-05
-5.4417587e-17
7.6099159e-05
-4.518046e-17
7.6099159e-05
-1.3288824e-16
7.6099159e-05
8.9317092e-17
7.6099159e-05
3.5179249e-16
7.6099159e-05
7.5603339e-16
7.6099159e-05
9.4213342e-16
7.6099159e-05
9.987718e-16
7.6099159e-05
8.0135362e-16
7.6099159e-05
5.7308932e-16
7.6099159e-05
2.6871352e-16
7.6099159e-05
-1.4433681e-16
7.6099159e-05
-5.0869564e-16
7.6099159e-05
-5.4823186e-16
7.6099159e-05
-1.0371567e-16
7.6099159e-05
4.6342716e-16
7.6099159e-05
9.4006497e-16
7.6099159e-05
1.0445703e-15
7.6099159e-05
8.5943198e-16
7.6099159e-05
4.1074124e-16
7.6099159e-05
1.8060308e-16
7.6099159e-05
2.8400734e-17
7.6099159e-05
1.1831944e-16
7.6099159e-05
1.7724786e-16
7.6099159e-05
3.3886253e-16
7.6099159e-05
2.1747063e-16
7.6099159e-05
-9.7704342e-17
7.6099159e-05
-5.7908698e-16
7.6099159e-05
-8.3978722e-16
7.6099159e-05
-8.2150575e-16
7.6099159e-05
-5.040993e-16
7.6099159e-05
-3.4060849e-16
7.6099159e-05
-2.0151512e-16
7.6099159e-05
-7.8679699e-17
7.6099159e-05
3.0222625e-16
7.6099159e-05
5.7229771e-16
7.6099159e-05
6.7593965e-16
7.6099159e-05
4.4671136e-16
7.6099159e-05
1.7094235e-16
7.6099159e-05
2.0717532e-17
7.6099159e-05
6.5253008e-18
7.6099159e-05
8.9656235e-17
7.6099159e-05
2.173535e-16
7.6099159e-05
2.6156401e-16
7.6099159e-05
1.2376884e-16
7.6099159e-05
-2.206409e-16
7.6099159e-05
-6.7348405e-16
7.6099159e-05
-9.4154763e-16
7.6099159e-05
-7.2912429e-16
7.6099159e-05
-1.1508093e-16
7.6099159e-05
4.9373472e-16
7.6099159e-05
8.6067022e-16
7.6099159e-05
8.1014116e-16
7.6099159e-05
4.8088535e-16
7.6099159e-05
1.4670078e-16
7.6099159e-05
6.2519825e-17
7.6099159e-05
1.5457717e-16
7.6099159e-05
2.5113747e-16
7.6099159e-05
3.0583165e-16
7.6099159e-05
2.5945303e-16
7.6099159e-05
2.3318271e-16
7.6099159e-05
2.6846755e-16
7.6099159e-05
3.7656205e-16
7.6099159e-05
3.1528873e-16
7.6099159e-05
7.8544372e-17
7.6099159e-05
-3.8821172e-16
7.6099159e-05
-6.7953587e-16
7.6099159e-05
-7.3789027e-16
7.6099159e-05
-4.6162835e-16
7.6099159e-05
-2.3028762e-16
7.6099159e-05
-9.5025005e-17
7.6099159e-05
-1.5016692e-16
7.6099159e-05
-1.8138203e-16
7.6099159e-05
-3.0917711e-16
7.6099159e-05
-3.9903274e-16
7.6099159e-05
-4.1439305e-16
7.6099159e-05
-1.4172469e-16
7.6099159e-05
2.6497163e-16
7.6099159e-05
6.8806038e-16
7.6099159e-05
7.879036e-16
7.6099159e-05
5.5506079e-16
7.6099159e-05
2.1524862e-16
7.6099159e-05
2.8393171e-17
7.6099159e-05
2.489453e-17
7.6099159e-05
1.2104893e-16
7.6099159e-05
2.0671707e-16
7.6099159e-05
2.2841032e-16
7.6099159e-05
1.202282e-16
7.6099159e-05
2.7126039e-17
7.6099159e-05
1.5593864e-16
7.6099159e-05
4.0862926e-16
7.6099159e-05
1.7752841e-16
7.6099159e-05
-6.8668525e-16
-8.657421e-16
0.00023312986
0.00043770622
0.00018548527
0.00017459868
0.00015018421
9.6939525e-05
0.0001310242
4.9741134e-05
0.00011965162
2.7696007e-05
0.0001131446
1.5916624e-05
0.00010931814
9.0865053e-06
0.00010710183
5.2976317e-06
0.0001058215
3.0015556e-06
0.00010509347
1.7127836e-06
0.00010468612
9.4305266e-07
0.00010446306
5.1623433e-07
0.00010434425
2.7031244e-07
0.00010428311
1.3819379e-07
0.00010425319
6.5914763e-08
0.00010423959
2.9235134e-08
0.0001042342
1.0752944e-08
0.00010423268
2.4048699e-09
0.00010423281
-1.0810294e-09
0.00010423352
-2.1167821e-09
0.00010423431
-2.1447312e-09
0.000104235
-1.7798746e-09
0.00010423553
-1.3483739e-09
0.00010423592
-9.6054105e-10
0.00010423618
-6.5771214e-10
0.00010423636
-4.3576652e-10
0.00010423648
-2.816028e-10
0.00010423655
-1.7784282e-10
0.0001042366
-1.1014523e-10
0.00010423662
-6.6916374e-11
0.00010423664
-3.9928876e-11
0.00010423665
-2.3377561e-11
0.00010423666
-1.3424321e-11
0.00010423666
-7.5442625e-12
0.00010423666
-4.1388721e-12
0.00010423666
-2.2044826e-12
0.00010423666
-1.1309678e-12
0.00010423666
-5.5050409e-13
0.00010423666
-2.4807482e-13
0.00010423666
-9.6993035e-14
0.00010423666
-2.6052936e-14
0.00010423666
4.4591109e-15
0.00010423666
1.4810328e-14
0.00010423666
1.6159711e-14
0.00010423666
1.4075382e-14
0.00010423666
1.0959794e-14
0.00010423666
8.3297987e-15
0.00010423666
5.816464e-15
0.00010423666
3.559307e-15
0.00010423666
2.1863626e-15
0.00010423666
1.356118e-15
0.00010423666
8.1442049e-16
0.00010423666
6.8973243e-16
0.00010423666
5.2863421e-17
0.00010423666
-1.0607424e-16
0.00010423666
-1.3471221e-15
0.00010423666
-1.8638183e-15
0.00010423666
-2.1956092e-15
0.00010423666
-2.3065838e-15
0.00010423666
-1.5217378e-15
0.00010423666
-8.7713707e-16
0.00010423666
1.6105146e-16
0.00010423666
8.0612919e-16
0.00010423666
1.2263242e-15
0.00010423666
1.0551399e-15
0.00010423666
7.1258359e-16
0.00010423666
3.4297913e-16
0.00010423666
-7.2627911e-17
0.00010423666
-3.6427487e-16
0.00010423666
-4.3134241e-17
0.00010423666
-6.9564527e-16
0.00010423666
2.1697785e-16
0.00010423666
-4.762802e-16
0.00010423666
3.7766921e-16
0.00010423666
-3.3727129e-16
0.00010423666
4.8431206e-16
0.00010423666
-2.241124e-16
0.00010423666
6.2757533e-16
0.00010423666
-8.364059e-17
0.00010423666
7.5137386e-16
0.00010423666
2.6146343e-17
0.00010423666
8.6207677e-16
0.00010423666
1.7633173e-16
0.00010423666
9.6119541e-16
0.00010423666
2.4125372e-16
0.00010423666
9.902142e-16
0.00010423666
5.1447348e-16
0.00010423666
1.3755151e-15
0.00010423666
1.0135767e-15
0.00010423666
1.4698968e-15
0.00010423666
5.891143e-16
0.00010423666
5.2403861e-16
0.00010423666
-4.3654858e-16
0.00010423666
-2.885524e-16
0.00010423666
-7.9186984e-16
0.00010423666
-3.8719001e-16
0.00010423666
-5.9169213e-16
0.00010423666
-2.0253404e-16
0.00010423666
-3.6397703e-16
0.00010423666
2.0673455e-17
0.00010423666
-3.6513415e-17
0.00010423666
2.2221751e-16
0.00010423666
1.0669937e-16
0.00010423666
4.4149593e-18
0.00010423666
-1.3366555e-16
0.00010423666
-2.4485366e-16
0.00010423666
-1.6407793e-16
0.00010423666
-3.8157271e-16
0.00010423666
-3.6828109e-16
0.00010423666
-5.7745827e-16
0.00010423666
-5.4630334e-16
0.00010423666
-5.8060253e-16
0.00010423666
-6.0353332e-16
0.00010423666
-6.4596137e-16
0.00010423666
-4.9715268e-16
0.00010423666
-5.9964121e-16
0.00010423666
-4.7573813e-16
0.00010423666
-6.5690025e-16
0.00010423666
-5.5573886e-16
0.00010423666
-6.7002195e-16
0.00010423666
-5.2391797e-16
0.00010423666
-5.6594299e-16
0.00010423666
-4.3400553e-16
0.00010423666
-5.5093989e-16
0.00010423666
-5.1599167e-16
0.00010423666
-7.0692095e-16
0.00010423666
-6.8257295e-16
0.00010423666
-8.5248368e-16
0.00010423666