/*--------------------------------*- C++ -*----------------------------------*\
| =========                 |                                                 |
| \\      /  F ield         | OpenFOAM: The Open Source CFD Toolbox           |
|  \\    /   O peration     | Version:  2206                                  |
|   \\  /    A nd           | Website:  www.openfoam.com                      |
|    \\/     M anipulation  |                                                 |
\*---------------------------------------------------------------------------*/
FoamFile
{
    version     2.0;
    format      ascii;
    arch        "LSB;label=32;scalar=64";
    class       volVectorField;
    location    "12";
    object      U;
}
// * * * * * * * * * * * * * * * * * * * * * * * * * * * * * * * * * * * * * //

dimensions      [0 1 -1 0 0 0 0];

internalField   nonuniform List<vector> 
15000
(
(0.15962853 0.053997677 0)
(0.11557193 0.0064916387 0)
(0.064251361 0.0014144184 0)
(0.055918599 0.00074959924 0)
(0.047595817 0.00028826763 0)
(0.044708799 0.0001988425 0)
(0.042412494 9.0521436e-05 0)
(0.041406638 6.0127717e-05 0)
(0.040707476 2.8979713e-05 0)
(0.04037699 1.8020277e-05 0)
(0.040167798 8.6626396e-06 0)
(0.04006866 4.9960508e-06 0)
(0.040011054 2.2677445e-06 0)
(0.039985308 1.1739093e-06 0)
(0.039971973 4.4679728e-07 0)
(0.039967049 1.7402625e-07 0)
(0.03996518 1.4226366e-08 0)
(0.039965127 -3.0090637e-08 0)
(0.039965544 -4.8601435e-08 0)
(0.039966152 -4.3200586e-08 0)
(0.03996668 -3.5721428e-08 0)
(0.039967111 -2.6026634e-08 0)
(0.039967422 -1.8536648e-08 0)
(0.039967642 -1.2455882e-08 0)
(0.03996779 -8.2436125e-09 0)
(0.039967887 -5.2643168e-09 0)
(0.039967949 -3.3172213e-09 0)
(0.039967988 -2.0366655e-09 0)
(0.039968012 -1.2338975e-09 0)
(0.039968026 -7.3045143e-10 0)
(0.039968035 -4.2510056e-10 0)
(0.03996804 -2.4117023e-10 0)
(0.039968042 -1.3394851e-10 0)
(0.039968044 -7.2410352e-11 0)
(0.039968045 -3.8033276e-11 0)
(0.039968045 -1.9044841e-11 0)
(0.039968045 -8.8009446e-12 0)
(0.039968046 -3.5685243e-12 0)
(0.039968046 -1.236258e-12 0)
(0.039968046 -3.0466456e-13 0)
(0.039968046 6.1101677e-14 0)
(0.039968046 2.3998987e-13 0)
(0.039968046 3.0323895e-13 0)
(0.039968046 3.0038651e-13 0)
(0.039968046 2.1738586e-13 0)
(0.039968046 1.1557682e-13 0)
(0.039968046 8.0206168e-14 0)
(0.039968046 9.2585592e-14 0)
(0.039968046 1.5349021e-13 0)
(0.039968046 2.1092938e-13 0)
(0.039968046 2.7810417e-13 0)
(0.039968046 2.3755218e-13 0)
(0.039968046 2.8642731e-13 0)
(0.039968046 2.198643e-13 0)
(0.039968046 2.5442332e-13 0)
(0.039968046 1.2104444e-13 0)
(0.039968046 7.1091026e-14 0)
(0.039968046 -3.5112548e-14 0)
(0.039968046 -4.1229434e-14 0)
(0.039968046 -9.2212996e-14 0)
(0.039968046 -4.3789941e-14 0)
(0.039968046 -5.392432e-14 0)
(0.039968046 -3.9958256e-14 0)
(0.039968046 -1.0332616e-13 0)
(0.039968046 -1.2290982e-13 0)
(0.039968046 -1.8032957e-13 0)
(0.039968046 -1.884226e-13 0)
(0.039968046 -2.2512225e-13 0)
(0.039968046 -2.2181348e-13 0)
(0.039968046 -2.0189211e-13 0)
(0.039968046 -2.1962813e-13 0)
(0.039968046 -1.5310337e-13 0)
(0.039968046 -2.0783988e-13 0)
(0.039968046 -1.4645589e-13 0)
(0.039968046 -2.0873047e-13 0)
(0.039968046 -1.3747937e-13 0)
(0.039968046 -1.9741306e-13 0)
(0.039968046 -1.2427553e-13 0)
(0.039968046 -1.953083e-13 0)
(0.039968046 -1.3077114e-13 0)
(0.039968046 -2.0160836e-13 0)
(0.039968046 -1.3394255e-13 0)
(0.039968046 -1.8978164e-13 0)
(0.039968046 -1.1629321e-13 0)
(0.039968046 -1.8020317e-13 0)
(0.039968046 -1.2855686e-13 0)
(0.039968046 -1.8788025e-13 0)
(0.039968046 -1.0099972e-13 0)
(0.039968046 -8.8298794e-14 0)
(0.039968046 4.1744474e-14 0)
(0.039968046 4.5626229e-14 0)
(0.039968046 1.0208777e-13 0)
(0.039968046 8.6485139e-14 0)
(0.039968046 1.423963e-13 0)
(0.039968046 1.3226923e-13 0)
(0.039968046 1.7276174e-13 0)
(0.039968046 1.5333225e-13 0)
(0.039968046 1.714562e-13 0)
(0.039968046 1.605781e-13 0)
(0.039968046 1.7991211e-13 0)
(0.039968046 1.7892673e-13 0)
(0.039968046 1.8571495e-13 0)
(0.039968046 1.7265988e-13 0)
(0.039968046 1.5405541e-13 0)
(0.039968046 1.6983022e-13 0)
(0.039968046 1.6366068e-13 0)
(0.039968046 1.85877e-13 0)
(0.039968046 1.362136e-13 0)
(0.039968046 1.4251166e-13 0)
(0.039968046 1.2728052e-13 0)
(0.039968046 1.5351129e-13 0)
(0.039968046 1.5343363e-13 0)
(0.039968046 1.551037e-13 0)
(0.039968046 1.3631974e-13 0)
(0.039968046 1.8024673e-13 0)
(0.039968046 1.4092328e-13 0)
(0.039968046 1.6326382e-13 0)
(0.039968046 1.2876726e-13 0)
(0.039968046 1.5663343e-13 0)
(0.039968046 1.4426464e-13 0)
(0.039968046 1.7443429e-13 0)
(0.039968046 1.5820194e-13 0)
(0.039968046 1.6907962e-13 0)
(0.039968046 1.3798005e-13 0)
(0.039968046 1.4094515e-13 0)
(0.039968046 1.1127187e-13 0)
(0.039968046 1.2299144e-13 0)
(0.039968046 1.016019e-13 0)
(0.039968046 1.1687899e-13 0)
(0.039968046 9.8425466e-14 0)
(0.039968046 1.1131552e-13 0)
(0.039968046 9.5880195e-14 0)
(0.039968046 1.0688879e-13 0)
(0.039968046 9.7406628e-14 0)
(0.039968046 1.0703492e-13 0)
(0.039968046 1.0356518e-13 0)
(0.039968046 1.1060019e-13 0)
(0.039968046 1.1141959e-13 0)
(0.039968046 1.1632084e-13 0)
(0.039968046 1.2080245e-13 0)
(0.039968046 1.2454959e-13 0)
(0.039968046 1.2969754e-13 0)
(0.039968046 1.3192012e-13 0)
(0.039968046 1.3722904e-13 0)
(0.039968046 1.4038441e-13 0)
(0.039968046 1.4188069e-13 0)
(0.039968046 1.3661599e-13 0)
(0.039968046 1.3439091e-13 0)
(0.039968046 1.4593787e-13 0)
(0.039968046 1.6346717e-13 0)
(0.039968046 1.6661063e-13 0)
(0.039968046 1.3038473e-13 0)
(0.039968046 4.1122371e-14 0)
(0.039968046 -3.5883337e-14 0)
(0.039968046 -6.2941471e-14 0)
(0.039968046 -5.8263624e-14 0)
(0.039968046 -6.5813829e-14 0)
(0.039968046 -8.7655122e-14 0)
(0.039968046 -1.2138932e-13 0)
(0.039968046 -1.3589763e-13 0)
(0.039968046 -1.4216284e-13 0)
(0.039968046 -1.289734e-13 0)
(0.039968046 -1.2561177e-13 0)
(0.039968046 -1.1894381e-13 0)
(0.039968046 -1.3230323e-13 0)
(0.039968046 -1.3037995e-13 0)
(0.039968046 -1.3462936e-13 0)
(0.039968046 -1.2866118e-13 0)
(0.039968046 -1.447588e-13 0)
(0.039968046 -1.5642419e-13 0)
(0.039968046 -1.6830276e-13 0)
(0.039968046 -1.3742247e-13 0)
(0.039968046 -6.7360256e-14 0)
(0.039968046 1.3716833e-14 0)
(0.039968046 5.1904688e-14 0)
(0.039968046 7.2975582e-14 0)
(0.039968046 8.1794901e-14 0)
(0.039968046 1.1200523e-13 0)
(0.039968046 1.2934822e-13 0)
(0.039968046 1.4525337e-13 0)
(0.039968046 1.3888727e-13 0)
(0.039968046 1.3574504e-13 0)
(0.039968046 1.2089399e-13 0)
(0.039968046 1.2023606e-13 0)
(0.039968046 1.1193118e-13 0)
(0.039968046 1.143859e-13 0)
(0.039968046 1.0732931e-13 0)
(0.039968046 1.1343142e-13 0)
(0.039968046 1.1180124e-13 0)
(0.039968046 1.1751689e-13 0)
(0.039968046 1.1310748e-13 0)
(0.039968046 1.1553648e-13 0)
(0.039968046 1.0820597e-13 0)
(0.039968046 1.0777398e-13 0)
(0.039968046 9.2742123e-14 0)
(0.039968046 9.5532249e-14 0)
(0.039968046 9.3642147e-14 0)
(0.039968046 1.159721e-13 0)
(0.039968046 1.0620256e-13 0)
(0.039968046 8.5220959e-14 0)
(0.039968046 2.8566668e-14 0)
(0.039968046 -2.580191e-14 0)
(0.039968046 -6.9427395e-14 0)
(0.039968046 -7.4788925e-14 0)
(0.039968046 -9.2414817e-14 0)
(0.039968046 -9.6403438e-14 0)
(0.039968046 -1.1921679e-13 0)
(0.039968046 -1.2287331e-13 0)
(0.039968046 -1.3800739e-13 0)
(0.039968046 -1.1627522e-13 0)
(0.039968046 -7.4648562e-14 0)
(0.039968046 -1.2733582e-15 0)
(0.039968046 6.1203295e-14 0)
(0.039968046 1.1508063e-13 0)
(0.039968046 1.4816901e-13 0)
(0.039968046 1.7316641e-13 0)
(0.039968046 1.7654519e-13 0)
(0.039968046 1.1961801e-13 0)
(0.039968046 2.2717048e-14 0)
(0.039968046 -4.0036363e-14 0)
(0.039968046 -5.1202066e-14 0)
(0.039968046 -2.6414746e-14 0)
(0.039968046 2.7778009e-14 0)
(0.039968046 6.9744665e-14 0)
(0.039968046 9.4015741e-14 0)
(0.039968046 9.4816739e-14 0)
(0.039968046 1.1842648e-13 0)
(0.039968046 1.3194758e-13 0)
(0.039968046 1.5271972e-13 0)
(0.039968046 1.5603841e-13 0)
(0.039968046 1.7515755e-13 0)
(0.039968046 1.6585458e-13 0)
(0.039968046 1.3118311e-13 0)
(0.039968046 4.0019875e-14 0)
(0.039968046 -3.9702477e-14 0)
(0.039968046 -8.1388998e-14 0)
(0.039968046 -9.1259774e-14 0)
(0.039968046 -1.1769124e-13 0)
(0.039968046 -1.4903041e-13 0)
(0.039968046 -1.6074854e-13 0)
(0.039968046 -1.0109311e-13 0)
(0.039968046 -1.8997117e-14 0)
(0.039968046 4.7920284e-14 0)
(0.039968046 7.4201059e-14 0)
(0.039968046 9.2439531e-14 0)
(0.039968046 1.1099708e-13 0)
(0.039968046 1.3115361e-13 0)
(0.039968046 1.4481989e-13 0)
(0.039968046 1.5901523e-13 0)
(0.039968046 1.6774161e-13 0)
(0.039968046 1.6015837e-13 0)
(0.039968046 1.1186426e-13 0)
(0.039968046 1.8006303e-14 0)
(0.039968046 -7.2026927e-14 0)
(0.039968046 -1.0927836e-13 0)
(0.039968046 -8.6571269e-14 0)
(0.039968046 -3.1801529e-14 0)
(0.039968046 2.9850467e-14 0)
(0.039968046 5.9708885e-14 0)
(0.039968046 6.7023966e-14 0)
(0.039968046 8.0401396e-14 0)
(0.039968046 1.1309928e-13 0)
(0.039968046 1.501533e-13 0)
(0.039968046 1.7099485e-13 0)
(0.039968046 1.7325663e-13 0)
(0.039968046 1.6102125e-13 0)
(0.039968046 1.4721049e-13 0)
(0.039968046 1.4749332e-13 0)
(0.039968046 1.6703427e-13 0)
(0.039968046 1.766541e-13 0)
(0.039968046 1.5762182e-13 0)
(0.039968046 7.0305838e-14 0)
(0.039968046 -1.1069495e-14 0)
(0.039968046 -6.2555174e-14 0)
(0.039968046 -8.2368807e-14 0)
(0.039968046 -1.0131843e-13 0)
(0.039968046 -1.2486978e-13 0)
(0.039968046 -1.5345587e-13 0)
(0.039968046 -1.6058952e-13 0)
(0.039968046 -1.699142e-13 0)
(0.039968046 -1.7948896e-13 0)
(0.039968046 -1.8869314e-13 0)
(0.039968046 -1.6700672e-13 0)
(0.039968046 -9.6164105e-14 0)
(0.039968046 1.3307623e-15 0)
(0.039968046 6.1762769e-14 0)
(0.039968046 8.5914631e-14 0)
(0.039968046 9.0803159e-14 0)
(0.039968046 1.0781536e-13 0)
(0.039968046 1.2988372e-13 0)
(0.039968046 1.4890207e-13 0)
(0.039968046 1.5652444e-13 0)
(0.039968046 1.5694645e-13 0)
(0.039968046 1.3999799e-13 0)
(0.039968046 1.1910644e-13 0)
(0.039968046 1.2644228e-13 0)
(0.039968046 1.7316015e-13 0)
(0.039968046 1.7668512e-13 0)
(0.039968046 3.6488647e-14 0)
(0.039968046 -6.2249277e-14 0)
(0.36732383 0.14062829 0)
(0.29754389 0.025079378 0)
(0.1860793 0.0083694599 0)
(0.16132807 0.0041218753 0)
(0.13901859 0.0019375813 0)
(0.13040448 0.0011770244 0)
(0.12396461 0.00061112876 0)
(0.12095998 0.00037191938 0)
(0.1189454 0.00019726642 0)
(0.11794826 0.00011564201 0)
(0.11733081 6.0260904e-05 0)
(0.11702581 3.3416362e-05 0)
(0.11685066 1.6512189e-05 0)
(0.11676842 8.3930109e-06 0)
(0.1167257 3.663398e-06 0)
(0.11670834 1.5208591e-06 0)
(0.1167012 3.9942438e-07 0)
(0.11669986 -2.8079367e-08 0)
(0.1167004 -1.9901171e-07 0)
(0.11670175 -2.1584476e-07 0)
(0.11670304 -1.9026666e-07 0)
(0.11670415 -1.4597477e-07 0)
(0.11670497 -1.0635394e-07 0)
(0.11670557 -7.3296316e-08 0)
(0.11670597 -4.9172094e-08 0)
(0.11670624 -3.1929419e-08 0)
(0.11670642 -2.0335856e-08 0)
(0.11670653 -1.2649669e-08 0)
(0.11670659 -7.7386362e-09 0)
(0.11670664 -4.6385115e-09 0)
(0.11670666 -2.7328244e-09 0)
(0.11670667 -1.5760242e-09 0)
(0.11670668 -8.9064652e-10 0)
(0.11670669 -4.9132866e-10 0)
(0.11670669 -2.6402361e-10 0)
(0.11670669 -1.3672598e-10 0)
(0.11670669 -6.7258238e-11 0)
(0.11670669 -3.0527495e-11 0)
(0.11670669 -1.2460481e-11 0)
(0.11670669 -4.0530511e-12 0)
(0.11670669 -4.1056097e-13 0)
(0.11670669 1.1731117e-12 0)
(0.11670669 1.6485216e-12 0)
(0.11670669 1.6350442e-12 0)
(0.11670669 1.2949786e-12 0)
(0.11670669 8.9625949e-13 0)
(0.11670669 6.505484e-13 0)
(0.11670669 5.1912883e-13 0)
(0.11670669 4.0443742e-13 0)
(0.11670669 4.4149811e-13 0)
(0.11670669 4.7119168e-13 0)
(0.11670669 4.1390453e-13 0)
(0.11670669 4.7280661e-13 0)
(0.11670669 3.3468615e-13 0)
(0.11670669 3.7509277e-13 0)
(0.11670669 5.2533653e-14 0)
(0.11670669 -8.7000125e-14 0)
(0.11670669 -2.7143009e-13 0)
(0.11670669 -3.4552557e-13 0)
(0.11670669 -3.2750218e-13 0)
(0.11670669 -2.1302644e-13 0)
(0.11670669 -7.5463652e-14 0)
(0.11670669 -1.2301882e-14 0)
(0.11670669 -6.3700095e-14 0)
(0.11670669 -1.6400792e-13 0)
(0.11670669 -2.9631356e-13 0)
(0.11670669 -3.5371631e-13 0)
(0.11670669 -4.2832877e-13 0)
(0.11670669 -4.3096067e-13 0)
(0.11670669 -3.2115058e-13 0)
(0.11670669 -4.440208e-13 0)
(0.11670669 -2.009958e-13 0)
(0.11670669 -3.9249472e-13 0)
(0.11670669 -1.7617919e-13 0)
(0.11670669 -3.8093992e-13 0)
(0.11670669 -1.5308587e-13 0)
(0.11670669 -3.5046519e-13 0)
(0.11670669 -1.1703119e-13 0)
(0.11670669 -3.3264941e-13 0)
(0.11670669 -1.173146e-13 0)
(0.11670669 -3.3832763e-13 0)
(0.11670669 -1.1609561e-13 0)
(0.11670669 -3.0724564e-13 0)
(0.11670669 -8.246386e-14 0)
(0.11670669 -2.9325988e-13 0)
(0.11670669 -1.1119131e-13 0)
(0.11670669 -2.7558631e-13 0)
(0.11670669 -9.3509669e-15 0)
(0.11670669 -2.5371323e-14 0)
(0.11670669 2.6088424e-13 0)
(0.11670669 1.6102425e-13 0)
(0.11670669 2.6096649e-13 0)
(0.11670669 8.3249134e-14 0)
(0.11670669 2.0227772e-13 0)
(0.11670669 1.129624e-13 0)
(0.11670669 2.3976763e-13 0)
(0.11670669 1.7173338e-13 0)
(0.11670669 2.6098032e-13 0)
(0.11670669 2.055586e-13 0)
(0.11670669 2.9526037e-13 0)
(0.11670669 2.6515441e-13 0)
(0.11670669 3.2007865e-13 0)
(0.11670669 2.6374621e-13 0)
(0.11670669 2.3254285e-13 0)
(0.11670669 2.3171656e-13 0)
(0.11670669 2.4097486e-13 0)
(0.11670669 2.8921034e-13 0)
(0.11670669 2.1069452e-13 0)
(0.11670669 2.1289443e-13 0)
(0.11670669 1.6713251e-13 0)
(0.11670669 2.017831e-13 0)
(0.11670669 1.942749e-13 0)
(0.11670669 1.8432005e-13 0)
(0.11670669 1.6459484e-13 0)
(0.11670669 2.2324281e-13 0)
(0.11670669 1.71789e-13 0)
(0.11670669 1.9927083e-13 0)
(0.11670669 1.3785437e-13 0)
(0.11670669 1.8157458e-13 0)
(0.11670669 1.6388187e-13 0)
(0.11670669 2.2621649e-13 0)
(0.11670669 2.0984063e-13 0)
(0.11670669 2.3792138e-13 0)
(0.11670669 1.8081013e-13 0)
(0.11670669 1.7994256e-13 0)
(0.11670669 1.1441699e-13 0)
(0.11670669 1.2837506e-13 0)
(0.11670669 8.0167259e-14 0)
(0.11670669 1.0628558e-13 0)
(0.11670669 6.6566939e-14 0)
(0.11670669 8.9662074e-14 0)
(0.11670669 5.7727559e-14 0)
(0.11670669 7.7674305e-14 0)
(0.11670669 6.0242456e-14 0)
(0.11670669 7.7856957e-14 0)
(0.11670669 7.4660312e-14 0)
(0.11670669 8.733735e-14 0)
(0.11670669 9.4564787e-14 0)
(0.11670669 1.0284194e-13 0)
(0.11670669 1.1769405e-13 0)
(0.11670669 1.2250191e-13 0)
(0.11670669 1.3752914e-13 0)
(0.11670669 1.3798901e-13 0)
(0.11670669 1.5421783e-13 0)
(0.11670669 1.5681341e-13 0)
(0.11670669 1.6152026e-13 0)
(0.11670669 1.4607162e-13 0)
(0.11670669 1.5071872e-13 0)
(0.11670669 1.8301414e-13 0)
(0.11670669 2.2017774e-13 0)
(0.11670669 1.9488788e-13 0)
(0.11670669 9.3060172e-14 0)
(0.11670669 -9.7300525e-14 0)
(0.11670669 -2.1749905e-13 0)
(0.11670669 -2.0590824e-13 0)
(0.11670669 -1.0473232e-13 0)
(0.11670669 -3.0961749e-14 0)
(0.11670669 -2.5190175e-14 0)
(0.11670669 -7.6153078e-14 0)
(0.11670669 -1.0463789e-13 0)
(0.11670669 -1.3460864e-13 0)
(0.11670669 -1.1485832e-13 0)
(0.11670669 -1.1397014e-13 0)
(0.11670669 -1.0532072e-13 0)
(0.11670669 -1.3248819e-13 0)
(0.11670669 -1.3082988e-13 0)
(0.11670669 -1.4102102e-13 0)
(0.11670669 -1.3350509e-13 0)
(0.11670669 -1.7675885e-13 0)
(0.11670669 -1.9944455e-13 0)
(0.11670669 -2.0092929e-13 0)
(0.11670669 -1.1432544e-13 0)
(0.11670669 3.500239e-14 0)
(0.11670669 1.7090684e-13 0)
(0.11670669 1.8197009e-13 0)
(0.11670669 1.4596192e-13 0)
(0.11670669 7.5717875e-14 0)
(0.11670669 9.7432093e-14 0)
(0.11670669 1.1306324e-13 0)
(0.11670669 1.5084842e-13 0)
(0.11670669 1.4356498e-13 0)
(0.11670669 1.4462094e-13 0)
(0.11670669 1.1467011e-13 0)
(0.11670669 1.160176e-13 0)
(0.11670669 9.2847667e-14 0)
(0.11670669 9.8635261e-14 0)
(0.11670669 8.0740529e-14 0)
(0.11670669 9.6739406e-14 0)
(0.11670669 9.3334674e-14 0)
(0.11670669 1.0902226e-13 0)
(0.11670669 9.6976567e-14 0)
(0.11670669 1.0292124e-13 0)
(0.11670669 8.3348852e-14 0)
(0.11670669 8.085844e-14 0)
(0.11670669 4.3942067e-14 0)
(0.11670669 5.2706164e-14 0)
(0.11670669 4.6550038e-14 0)
(0.11670669 8.5120312e-14 0)
(0.11670669 4.1939028e-14 0)
(0.11670669 -1.1497952e-14 0)
(0.11670669 -1.3332208e-13 0)
(0.11670669 -2.0406527e-13 0)
(0.11670669 -2.2784915e-13 0)
(0.11670669 -1.5051365e-13 0)
(0.11670669 -1.0618326e-13 0)
(0.11670669 -6.6783313e-14 0)
(0.11670669 -1.0519252e-13 0)
(0.11670669 -1.1018356e-13 0)
(0.11670669 -1.4821121e-13 0)
(0.11670669 -7.9934109e-14 0)
(0.11670669 1.3807277e-14 0)
(0.11670669 1.7490891e-13 0)
(0.11670669 2.7029429e-13 0)
(0.11670669 3.354366e-13 0)
(0.11670669 3.1560546e-13 0)
(0.11670669 2.8153315e-13 0)
(0.11670669 2.1631384e-13 0)
(0.11670669 6.8184105e-14 0)
(0.11670669 -1.0348561e-13 0)
(0.11670669 -1.6697147e-13 0)
(0.11670669 -7.0923862e-14 0)
(0.11670669 8.1830108e-14 0)
(0.11670669 2.4115449e-13 0)
(0.11670669 3.0289565e-13 0)
(0.11670669 2.8418557e-13 0)
(0.11670669 1.8136789e-13 0)
(0.11670669 1.4144034e-13 0)
(0.11670669 1.2315955e-13 0)
(0.11670669 1.5999245e-13 0)
(0.11670669 1.8174831e-13 0)
(0.11670669 2.3517845e-13 0)
(0.11670669 2.0592981e-13 0)
(0.11670669 9.4727976e-14 0)
(0.11670669 -9.4711732e-14 0)
(0.11670669 -2.3020201e-13 0)
(0.11670669 -2.6199868e-13 0)
(0.11670669 -1.9760771e-13 0)
(0.11670669 -1.8326138e-13 0)
(0.11670669 -1.7428071e-13 0)
(0.11670669 -1.6141479e-13 0)
(0.11670669 -1.6111268e-14 0)
(0.11670669 1.2089347e-13 0)
(0.11670669 2.0355125e-13 0)
(0.11670669 1.8162677e-13 0)
(0.11670669 1.2165726e-13 0)
(0.11670669 1.0701646e-13 0)
(0.11670669 1.1916379e-13 0)
(0.11670669 1.5101764e-13 0)
(0.11670669 1.9639129e-13 0)
(0.11670669 2.1511506e-13 0)
(0.11670669 1.763366e-13 0)
(0.11670669 5.5296879e-14 0)
(0.11670669 -1.4025784e-13 0)
(0.11670669 -2.8279925e-13 0)
(0.11670669 -2.7105753e-13 0)
(0.11670669 -1.0556372e-13 0)
(0.11670669 8.6628715e-14 0)
(0.11670669 2.2922315e-13 0)
(0.11670669 2.3816627e-13 0)
(0.11670669 1.7620526e-13 0)
(0.11670669 9.9857257e-14 0)
(0.11670669 1.0763156e-13 0)
(0.11670669 1.6598484e-13 0)
(0.11670669 2.0441768e-13 0)
(0.11670669 2.2336132e-13 0)
(0.11670669 2.0056101e-13 0)
(0.11670669 1.8355236e-13 0)
(0.11670669 1.9214403e-13 0)
(0.11670669 2.3563807e-13 0)
(0.11670669 2.3066304e-13 0)
(0.11670669 1.5833271e-13 0)
(0.11670669 -2.6035844e-14 0)
(0.11670669 -1.748672e-13 0)
(0.11670669 -2.2986074e-13 0)
(0.11670669 -1.8456854e-13 0)
(0.11670669 -1.4451233e-13 0)
(0.11670669 -1.3318749e-13 0)
(0.11670669 -1.7104589e-13 0)
(0.11670669 -1.8591182e-13 0)
(0.11670669 -2.2347065e-13 0)
(0.11670669 -2.5484111e-13 0)
(0.11670669 -2.6811106e-13 0)
(0.11670669 -1.8173647e-13 0)
(0.11670669 -2.627702e-14 0)
(0.11670669 1.6637615e-13 0)
(0.11670669 2.4305418e-13 0)
(0.11670669 2.1199354e-13 0)
(0.11670669 1.3547773e-13 0)
(0.11670669 1.0129972e-13 0)
(0.11670669 1.2263886e-13 0)
(0.11670669 1.6028533e-13 0)
(0.11670669 1.8937709e-13 0)
(0.11670669 1.9362958e-13 0)
(0.11670669 1.5383642e-13 0)
(0.11670669 1.1129803e-13 0)
(0.11670669 1.5022016e-13 0)
(0.11670669 2.5350133e-13 0)
(0.11670669 2.0481792e-13 0)
(0.11670669 -1.416004e-13 0)
(0.11670669 -2.6042588e-13 0)
(0.50390834 0.19019021 0)
(0.43847039 0.050431496 0)
(0.29767008 0.02205531 0)
(0.25944374 0.010780099 0)
(0.22598939 0.0055621414 0)
(0.21213187 0.003230801 0)
(0.20205719 0.0017732909 0)
(0.19716897 0.0010457382 0)
(0.19394744 0.00057679374 0)
(0.19230772 0.00033133247 0)
(0.19130242 0.00017832786 0)
(0.19079327 9.772536e-05 0)
(0.19050201 4.9921989e-05 0)
(0.1903612 2.5325738e-05 0)
(0.19028762 1.161943e-05 0)
(0.19025609 4.9684184e-06 0)
(0.1902425 1.5961035e-06 0)
(0.19023894 1.7334046e-07 0)
(0.19023899 -3.9982373e-07 0)
(0.19024063 -5.2243606e-07 0)
(0.19024241 -4.8485386e-07 0)
(0.19024402 -3.8475189e-07 0)
(0.19024524 -2.8478812e-07 0)
(0.19024615 -1.9923319e-07 0)
(0.19024677 -1.3481661e-07 0)
(0.19024719 -8.8360265e-08 0)
(0.19024746 -5.6634497e-08 0)
(0.19024763 -3.5479191e-08 0)
(0.19024774 -2.1824757e-08 0)
(0.1902478 -1.3164948e-08 0)
(0.19024784 -7.8015142e-09 0)
(0.19024787 -4.5317444e-09 0)
(0.19024788 -2.5805744e-09 0)
(0.19024789 -1.4364333e-09 0)
(0.19024789 -7.7959649e-10 0)
(0.19024789 -4.0934049e-10 0)
(0.1902479 -2.0557625e-10 0)
(0.1902479 -9.6756788e-11 0)
(0.1902479 -4.1522273e-11 0)
(0.1902479 -1.4922757e-11 0)
(0.1902479 -2.9125585e-12 0)
(0.1902479 2.1929137e-12 0)
(0.1902479 3.8756534e-12 0)
(0.1902479 3.9331322e-12 0)
(0.1902479 3.2268641e-12 0)
(0.1902479 2.3160916e-12 0)
(0.1902479 1.6778106e-12 0)
(0.1902479 1.2013243e-12 0)
(0.1902479 8.6065174e-13 0)
(0.1902479 7.531011e-13 0)
(0.1902479 7.3124867e-13 0)
(0.1902479 6.025755e-13 0)
(0.1902479 6.6534613e-13 0)
(0.1902479 4.5984728e-13 0)
(0.1902479 4.9799469e-13 0)
(0.1902479 2.8476514e-14 0)
(0.1902479 -1.9510853e-13 0)
(0.1902479 -4.6636389e-13 0)
(0.1902479 -5.9931032e-13 0)
(0.1902479 -5.5144907e-13 0)
(0.1902479 -3.5455429e-13 0)
(0.1902479 -9.5801317e-14 0)
(0.1902479 3.9289142e-14 0)
(0.1902479 -1.7009806e-16 0)
(0.1902479 -1.3461845e-13 0)
(0.1902479 -3.130361e-13 0)
(0.1902479 -4.0255928e-13 0)
(0.1902479 -5.134589e-13 0)
(0.1902479 -5.4645676e-13 0)
(0.1902479 -4.0519236e-13 0)
(0.1902479 -5.7368669e-13 0)
(0.1902479 -2.5689181e-13 0)
(0.1902479 -5.0168435e-13 0)
(0.1902479 -2.2659876e-13 0)
(0.1902479 -4.8792885e-13 0)
(0.1902479 -1.9736289e-13 0)
(0.1902479 -4.4430417e-13 0)
(0.1902479 -1.4528477e-13 0)
(0.1902479 -4.1597844e-13 0)
(0.1902479 -1.4363036e-13 0)
(0.1902479 -4.2698119e-13 0)
(0.1902479 -1.413065e-13 0)
(0.1902479 -3.8273596e-13 0)
(0.1902479 -9.6491196e-14 0)
(0.1902479 -3.6779243e-13 0)
(0.1902479 -1.4117104e-13 0)
(0.1902479 -3.3754013e-13 0)
(0.1902479 2.5401957e-14 0)
(0.1902479 4.221043e-14 0)
(0.1902479 3.9996906e-13 0)
(0.1902479 2.7570859e-13 0)
(0.1902479 3.5021471e-13 0)
(0.1902479 9.9927037e-14 0)
(0.1902479 2.2084512e-13 0)
(0.1902479 1.1651834e-13 0)
(0.1902479 2.6938463e-13 0)
(0.1902479 2.0496751e-13 0)
(0.1902479 3.1270602e-13 0)
(0.1902479 2.6470841e-13 0)
(0.1902479 3.7084166e-13 0)
(0.1902479 3.5875774e-13 0)
(0.1902479 4.2195638e-13 0)
(0.1902479 3.6420922e-13 0)
(0.1902479 3.0002989e-13 0)
(0.1902479 3.1387797e-13 0)
(0.1902479 3.175025e-13 0)
(0.1902479 4.040454e-13 0)
(0.1902479 2.8154137e-13 0)
(0.1902479 2.8796992e-13 0)
(0.1902479 2.0517658e-13 0)
(0.1902479 2.4455742e-13 0)
(0.1902479 2.2861761e-13 0)
(0.1902479 2.1898336e-13 0)
(0.1902479 1.807612e-13 0)
(0.1902479 2.8260101e-13 0)
(0.1902479 1.9736608e-13 0)
(0.1902479 2.4825346e-13 0)
(0.1902479 1.5181382e-13 0)
(0.1902479 2.1838716e-13 0)
(0.1902479 1.9046961e-13 0)
(0.1902479 2.8824637e-13 0)
(0.1902479 2.6805951e-13 0)
(0.1902479 3.1310871e-13 0)
(0.1902479 2.2935749e-13 0)
(0.1902479 2.2482064e-13 0)
(0.1902479 1.2689666e-13 0)
(0.1902479 1.422029e-13 0)
(0.1902479 7.3094179e-14 0)
(0.1902479 1.064098e-13 0)
(0.1902479 5.1583248e-14 0)
(0.1902479 8.1083648e-14 0)
(0.1902479 3.7991483e-14 0)
(0.1902479 6.3469168e-14 0)
(0.1902479 4.1450164e-14 0)
(0.1902479 6.4753884e-14 0)
(0.1902479 6.3515847e-14 0)
(0.1902479 8.0305014e-14 0)
(0.1902479 9.387527e-14 0)
(0.1902479 1.0474408e-13 0)
(0.1902479 1.2860074e-13 0)
(0.1902479 1.3424933e-13 0)
(0.1902479 1.5786451e-13 0)
(0.1902479 1.5643112e-13 0)
(0.1902479 1.8236257e-13 0)
(0.1902479 1.8321409e-13 0)
(0.1902479 1.9243412e-13 0)
(0.1902479 1.6573752e-13 0)
(0.1902479 1.7828601e-13 0)
(0.1902479 2.2564782e-13 0)
(0.1902479 2.8459598e-13 0)
(0.1902479 2.3483222e-13 0)
(0.1902479 7.3936692e-14 0)
(0.1902479 -1.9874283e-13 0)
(0.1902479 -3.5236632e-13 0)
(0.1902479 -3.2339458e-13 0)
(0.1902479 -1.3298743e-13 0)
(0.1902479 1.6389727e-15 0)
(0.1902479 3.6782329e-14 0)
(0.1902479 -2.9741231e-14 0)
(0.1902479 -6.696654e-14 0)
(0.1902479 -1.1820113e-13 0)
(0.1902479 -9.6365953e-14 0)
(0.1902479 -1.0265409e-13 0)
(0.1902479 -9.2782587e-14 0)
(0.1902479 -1.3514137e-13 0)
(0.1902479 -1.3440784e-13 0)
(0.1902479 -1.4903586e-13 0)
(0.1902479 -1.4199594e-13 0)
(0.1902479 -2.0765549e-13 0)
(0.1902479 -2.4229035e-13 0)
(0.1902479 -2.3648345e-13 0)
(0.1902479 -9.7562684e-14 0)
(0.1902479 1.1457284e-13 0)
(0.1902479 2.9237683e-13 0)
(0.1902479 2.9974349e-13 0)
(0.1902479 2.1158556e-13 0)
(0.1902479 8.6458635e-14 0)
(0.1902479 9.6417857e-14 0)
(0.1902479 1.1767826e-13 0)
(0.1902479 1.7153168e-13 0)
(0.1902479 1.6623312e-13 0)
(0.1902479 1.6670203e-13 0)
(0.1902479 1.2560389e-13 0)
(0.1902479 1.2367043e-13 0)
(0.1902479 9.1355536e-14 0)
(0.1902479 9.5673725e-14 0)
(0.1902479 7.3262161e-14 0)
(0.1902479 9.4600399e-14 0)
(0.1902479 9.4981695e-14 0)
(0.1902479 1.1755433e-13 0)
(0.1902479 1.0396337e-13 0)
(0.1902479 1.1110174e-13 0)
(0.1902479 8.5604226e-14 0)
(0.1902479 7.8115999e-14 0)
(0.1902479 2.4885784e-14 0)
(0.1902479 3.2113395e-14 0)
(0.1902479 2.3233043e-14 0)
(0.1902479 6.8622513e-14 0)
(0.1902479 -6.8449315e-15 0)
(0.1902479 -1.0037194e-13 0)
(0.1902479 -2.7887733e-13 0)
(0.1902479 -3.7268328e-13 0)
(0.1902479 -3.9193748e-13 0)
(0.1902479 -2.4670094e-13 0)
(0.1902479 -1.5706682e-13 0)
(0.1902479 -7.898275e-14 0)
(0.1902479 -1.2727082e-13 0)
(0.1902479 -1.3432468e-13 0)
(0.1902479 -1.8751133e-13 0)
(0.1902479 -7.9274754e-14 0)
(0.1902479 6.6601072e-14 0)
(0.1902479 2.9742741e-13 0)
(0.1902479 4.3434592e-13 0)
(0.1902479 5.1156847e-13 0)
(0.1902479 4.613339e-13 0)
(0.1902479 3.7932173e-13 0)
(0.1902479 2.5510462e-13 0)
(0.1902479 3.0183077e-14 0)
(0.1902479 -2.0249946e-13 0)
(0.1902479 -2.7811941e-13 0)
(0.1902479 -1.0502565e-13 0)
(0.1902479 1.629798e-13 0)
(0.1902479 4.0370883e-13 0)
(0.1902479 4.9004482e-13 0)
(0.1902479 4.4254646e-13 0)
(0.1902479 2.5361623e-13 0)
(0.1902479 1.6697061e-13 0)
(0.1902479 1.21633e-13 0)
(0.1902479 1.7401218e-13 0)
(0.1902479 2.1505103e-13 0)
(0.1902479 2.9955027e-13 0)
(0.1902479 2.5246429e-13 0)
(0.1902479 7.4879126e-14 0)
(0.1902479 -1.9545632e-13 0)
(0.1902479 -3.8425669e-13 0)
(0.1902479 -4.1251717e-13 0)
(0.1902479 -2.9485436e-13 0)
(0.1902479 -2.4521845e-13 0)
(0.1902479 -2.1214985e-13 0)
(0.1902479 -1.747767e-13 0)
(0.1902479 3.7881839e-14 0)
(0.1902479 2.1768428e-13 0)
(0.1902479 3.2514106e-13 0)
(0.1902479 2.627515e-13 0)
(0.1902479 1.488219e-13 0)
(0.1902479 1.0550662e-13 0)
(0.1902479 1.1316385e-13 0)
(0.1902479 1.6465995e-13 0)
(0.1902479 2.3469639e-13 0)
(0.1902479 2.6524076e-13 0)
(0.1902479 1.9936069e-13 0)
(0.1902479 1.3313056e-14 0)
(0.1902479 -2.5858935e-13 0)
(0.1902479 -4.5286013e-13 0)
(0.1902479 -4.1259059e-13 0)
(0.1902479 -1.2717027e-13 0)
(0.1902479 1.7718895e-13 0)
(0.1902479 3.8676208e-13 0)
(0.1902479 3.9152885e-13 0)
(0.1902479 2.6710338e-13 0)
(0.1902479 1.2500999e-13 0)
(0.1902479 1.114555e-13 0)
(0.1902479 1.8797276e-13 0)
(0.1902479 2.4461087e-13 0)
(0.1902479 2.7596934e-13 0)
(0.1902479 2.4327166e-13 0)
(0.1902479 2.2035926e-13 0)
(0.1902479 2.360616e-13 0)
(0.1902479 3.0125184e-13 0)
(0.1902479 2.8527263e-13 0)
(0.1902479 1.6484381e-13 0)
(0.1902479 -9.7541234e-14 0)
(0.1902479 -2.9673329e-13 0)
(0.1902479 -3.6531994e-13 0)
(0.1902479 -2.7357607e-13 0)
(0.1902479 -1.8074201e-13 0)
(0.1902479 -1.440576e-13 0)
(0.1902479 -1.9015719e-13 0)
(0.1902479 -2.1389169e-13 0)
(0.1902479 -2.7703784e-13 0)
(0.1902479 -3.2889127e-13 0)
(0.1902479 -3.4558243e-13 0)
(0.1902479 -2.0658062e-13 0)
(0.1902479 2.209214e-14 0)
(0.1902479 2.8634577e-13 0)
(0.1902479 3.8591891e-13 0)
(0.1902479 3.1827533e-13 0)
(0.1902479 1.7385409e-13 0)
(0.1902479 1.0186683e-13 0)
(0.1902479 1.2275726e-13 0)
(0.1902479 1.7875042e-13 0)
(0.1902479 2.27004e-13 0)
(0.1902479 2.3584681e-13 0)
(0.1902479 1.7630374e-13 0)
(0.1902479 1.1225599e-13 0)
(0.1902479 1.7551313e-13 0)
(0.1902479 3.3166433e-13 0)
(0.1902479 2.4490955e-13 0)
(0.1902479 -2.5504189e-13 0)
(0.1902479 -4.2037703e-13 0)
(0.59346672 0.21467329 0)
(0.54593347 0.075998399 0)
(0.39702192 0.039312292 0)
(0.34953974 0.019720555 0)
(0.30792187 0.010726736 0)
(0.28963523 0.0061583785 0)
(0.27651264 0.0034761855 0)
(0.26994405 0.002029105 0)
(0.26565503 0.0011409897 0)
(0.26342423 0.00065140559 0)
(0.26206335 0.0003563321 0)
(0.26136077 0.00019487284 0)
(0.26095907 0.00010129404 0)
(0.26076048 5.159173e-05 0)
(0.260656 2.4316625e-05 0)
(0.26060945 1.0644464e-05 0)
(0.26058866 3.7609887e-06 0)
(0.26058217 7.1192864e-07 0)
(0.26058122 -5.4238155e-07 0)
(0.26058278 -8.8399085e-07 0)
(0.2605848 -8.6434963e-07 0)
(0.26058673 -7.0537879e-07 0)
(0.26058825 -5.296296e-07 0)
(0.26058939 -3.7482534e-07 0)
(0.26059018 -2.5551586e-07 0)
(0.26059072 -1.6863797e-07 0)
(0.26059108 -1.0864938e-07 0)
(0.2605913 -6.8420095e-08 0)
(0.26059144 -4.2270446e-08 0)
(0.26059153 -2.5615815e-08 0)
(0.26059159 -1.524726e-08 0)
(0.26059162 -8.9027772e-09 0)
(0.26059163 -5.097646e-09 0)
(0.26059165 -2.8555254e-09 0)
(0.26059165 -1.5607668e-09 0)
(0.26059165 -8.2735891e-10 0)
(0.26059166 -4.2154587e-10 0)
(0.26059166 -2.030982e-10 0)
(0.26059166 -9.0106852e-11 0)
(0.26059166 -3.4284e-11 0)
(0.26059166 -8.3907922e-12 0)
(0.26059166 2.6178805e-12 0)
(0.26059166 6.2808188e-12 0)
(0.26059166 6.6010809e-12 0)
(0.26059166 5.6173486e-12 0)
(0.26059166 4.2469437e-12 0)
(0.26059166 3.1733598e-12 0)
(0.26059166 2.2097527e-12 0)
(0.26059166 1.4659181e-12 0)
(0.26059166 1.0085207e-12 0)
(0.26059166 7.9822134e-13 0)
(0.26059166 5.5595381e-13 0)
(0.26059166 5.7988482e-13 0)
(0.26059166 2.8854088e-13 0)
(0.26059166 2.8450253e-13 0)
(0.26059166 -2.9669563e-13 0)
(0.26059166 -5.3540394e-13 0)
(0.26059166 -8.1500545e-13 0)
(0.26059166 -8.8350446e-13 0)
(0.26059166 -6.8917685e-13 0)
(0.26059166 -3.8964044e-13 0)
(0.26059166 -2.948471e-14 0)
(0.26059166 2.2975124e-13 0)
(0.26059166 3.0013243e-13 0)
(0.26059166 2.2167381e-13 0)
(0.26059166 3.6345198e-14 0)
(0.26059166 -9.4874691e-14 0)
(0.26059166 -2.7624292e-13 0)
(0.26059166 -3.7356359e-13 0)
(0.26059166 -2.5040641e-13 0)
(0.26059166 -4.854706e-13 0)
(0.26059166 -1.217628e-13 0)
(0.26059166 -4.0091604e-13 0)
(0.26059166 -6.2382549e-14 0)
(0.26059166 -3.5799183e-13 0)
(0.26059166 -1.6853433e-14 0)
(0.26059166 -3.0518835e-13 0)
(0.26059166 4.8082447e-14 0)
(0.26059166 -2.5519126e-13 0)
(0.26059166 8.081785e-14 0)
(0.26059166 -2.3199322e-13 0)
(0.26059166 1.1152022e-13 0)
(0.26059166 -1.7034844e-13 0)
(0.26059166 1.6063098e-13 0)
(0.26059166 -1.4362901e-13 0)
(0.26059166 1.4556184e-13 0)
(0.26059166 -6.1578186e-14 0)
(0.26059166 3.2985956e-13 0)
(0.26059166 2.5528262e-13 0)
(0.26059166 5.6020677e-13 0)
(0.26059166 2.8168883e-13 0)
(0.26059166 3.0672685e-13 0)
(0.26059166 -3.7395262e-14 0)
(0.26059166 6.0642792e-14 0)